<?xml version="1.0" encoding="ISO-8859-1"?>
<modeling>
 <generator>
  <i name="program" type="string">vasp </i>
  <i name="version" type="string">5.4.4.18Apr17-6-g9f103f2a35  </i>
  <i name="subversion" type="string">(build Nov 06 2023 00:46:14) complex            parallel </i>
  <i name="platform" type="string">LinuxIFC </i>
  <i name="date" type="string">2025 07 23 </i>
  <i name="time" type="string">19:05:03 </i>
 </generator>
 <incar>
  <i type="string" name="SYSTEM">Pt111 O2 adsorption system</i>
  <i type="int" name="ISTART">     0</i>
  <i type="string" name="PREC">normal</i>
  <i type="string" name="ALGO"> Fast</i>
  <i type="int" name="ICHARG">     1</i>
  <i type="int" name="IBRION">     5</i>
  <i type="int" name="NFREE">     2</i>
  <i name="EDIFF">      0.00000100</i>
  <i name="EDIFFG">     -0.02000000</i>
  <i type="int" name="NSW">     1</i>
  <i type="int" name="ISYM">     0</i>
  <i name="ENCUT">    450.00000000</i>
  <i name="POTIM">      0.01500000</i>
  <i type="string" name="LREAL"> Auto</i>
  <i type="int" name="ISMEAR">     0</i>
  <i name="SIGMA">      0.10000000</i>
  <i type="int" name="NWRITE">     3</i>
  <i type="logical" name="LWAVE"> F  </i>
  <i type="logical" name="LCHARG"> F  </i>
  <v type="int" name="KPOINT_BSE">    -1     0     0     0</v>
  <i type="string" name="GGA"> PE</i>
  <i type="logical" name="LDIPOL"> T  </i>
  <i type="int" name="IDIPOL">     3</i>
 </incar>
 <structure name="primitive_cell" >
  <crystal>
   <varray name="basis" >
    <v>       9.71779202       0.00000000       0.00000000 </v>
    <v>       0.00000000      11.22113968       0.00000000 </v>
    <v>       0.00000000       0.00000000      25.00000000 </v>
   </varray>
   <i name="volume">   2726.11754094 </i>
   <varray name="rec_basis" >
    <v>       0.10290403       0.00000000       0.00000000 </v>
    <v>       0.00000000       0.08911751       0.00000000 </v>
    <v>       0.00000000       0.00000000       0.04000000 </v>
   </varray>
  </crystal>
  <varray name="positions" >
   <v>       0.00000000       0.00000000       0.00000000 </v>
   <v>      -0.16666666       0.00000000       0.09162022 </v>
   <v>       0.08333334       0.12500000       0.09162022 </v>
   <v>       0.08333334      -0.12500000       0.09162022 </v>
   <v>       0.25000000       0.12500000       0.00000000 </v>
   <v>       0.25000000      -0.12500000       0.00000000 </v>
   <v>      -0.25000000       0.12500000       0.00000000 </v>
   <v>      -0.25000000      -0.12500000       0.00000000 </v>
   <v>       0.00000000       0.25000000       0.00000000 </v>
   <v>       0.00000000      -0.25000000       0.00000000 </v>
   <v>      -0.16666666       0.25000000       0.09162022 </v>
   <v>      -0.16666666      -0.25000000       0.09162022 </v>
   <v>       0.33333334       0.00000000       0.09162022 </v>
   <v>       0.16647271      -0.00025972       0.17936943 </v>
   <v>      -0.08319632       0.12550317       0.17972480 </v>
   <v>      -0.08308005      -0.12499743       0.17999896 </v>
   <v>      -0.41666666       0.12500000       0.09162022 </v>
   <v>      -0.41666666      -0.12500000       0.09162022 </v>
   <v>       0.08333334       0.37500000       0.09162022 </v>
   <v>       0.08333334      -0.37500000       0.09162022 </v>
   <v>       0.33333334       0.25000000       0.09162022 </v>
   <v>       0.33333334      -0.25000000       0.09162022 </v>
   <v>      -0.50000000       0.00000000       0.00000000 </v>
   <v>       0.25000000       0.37500000       0.00000000 </v>
   <v>       0.25000000      -0.37500000       0.00000000 </v>
   <v>      -0.25000000       0.37500000       0.00000000 </v>
   <v>      -0.25000000      -0.37500000       0.00000000 </v>
   <v>       0.16644707      -0.24972454       0.17935895 </v>
   <v>      -0.33288334      -0.00055011       0.18014439 </v>
   <v>       0.16809496       0.25118813       0.18078224 </v>
   <v>      -0.50000000       0.25000000       0.00000000 </v>
   <v>      -0.50000000      -0.25000000       0.00000000 </v>
   <v>       0.00000000      -0.50000000       0.00000000 </v>
   <v>      -0.08414211       0.37500854       0.17958245 </v>
   <v>       0.41638067      -0.12501228       0.17988393 </v>
   <v>      -0.33284543      -0.24946319       0.18015382 </v>
   <v>      -0.08318091      -0.37550134       0.17973786 </v>
   <v>       0.41819215       0.12550146       0.18130929 </v>
   <v>      -0.33672034       0.24894479       0.18208954 </v>
   <v>      -0.41666666       0.37500000       0.09162022 </v>
   <v>      -0.41666666      -0.37500000       0.09162022 </v>
   <v>      -0.16666666      -0.50000000       0.09162022 </v>
   <v>      -0.00155445      -0.00102063       0.27101523 </v>
   <v>       0.33333334      -0.50000000       0.09162022 </v>
   <v>       0.24579892       0.11939021       0.26943358 </v>
   <v>      -0.24628283       0.12240348       0.27092959 </v>
   <v>      -0.00113440       0.24808238       0.27079957 </v>
   <v>       0.24854021      -0.12500093       0.27093771 </v>
   <v>      -0.00156077      -0.24894816       0.27102508 </v>
   <v>      -0.24898155      -0.12498310       0.27127340 </v>
   <v>       0.16809541       0.49881214       0.18077949 </v>
   <v>       0.41815147      -0.37554643       0.18131337 </v>
   <v>       0.41761863       0.37494708       0.18179363 </v>
   <v>      -0.50000000      -0.50000000       0.00000000 </v>
   <v>      -0.33673474      -0.49892500       0.18209235 </v>
   <v>       0.24573583      -0.36937524       0.26944976 </v>
   <v>      -0.24315930       0.37502688       0.27029599 </v>
   <v>      -0.24632278      -0.37238314       0.27093433 </v>
   <v>      -0.49934406      -0.00319019       0.27090236 </v>
   <v>       0.24190535       0.37501640       0.27212767 </v>
   <v>      -0.00114087      -0.49802511       0.27078573 </v>
   <v>      -0.49933053      -0.24683672       0.27090294 </v>
   <v>      -0.49109757       0.24758998       0.27415992 </v>
   <v>       0.41756823       0.29584546       0.33877803 </v>
   <v>      -0.49122529      -0.49764315       0.27415411 </v>
   <v>       0.41742062       0.45397588       0.33874630 </v>
  </varray>
 </structure>
 <varray name="primitive_index" >
  <v type="int" >        1 </v>
  <v type="int" >       34 </v>
  <v type="int" >        5 </v>
  <v type="int" >       29 </v>
  <v type="int" >        4 </v>
  <v type="int" >       28 </v>
  <v type="int" >       36 </v>
  <v type="int" >       60 </v>
  <v type="int" >        9 </v>
  <v type="int" >       25 </v>
  <v type="int" >       42 </v>
  <v type="int" >       58 </v>
  <v type="int" >        2 </v>
  <v type="int" >        3 </v>
  <v type="int" >       38 </v>
  <v type="int" >       62 </v>
  <v type="int" >       37 </v>
  <v type="int" >       61 </v>
  <v type="int" >       13 </v>
  <v type="int" >       21 </v>
  <v type="int" >       10 </v>
  <v type="int" >       26 </v>
  <v type="int" >       33 </v>
  <v type="int" >       12 </v>
  <v type="int" >       20 </v>
  <v type="int" >       44 </v>
  <v type="int" >       52 </v>
  <v type="int" >       27 </v>
  <v type="int" >       35 </v>
  <v type="int" >       11 </v>
  <v type="int" >       41 </v>
  <v type="int" >       57 </v>
  <v type="int" >       17 </v>
  <v type="int" >       46 </v>
  <v type="int" >       30 </v>
  <v type="int" >       59 </v>
  <v type="int" >       54 </v>
  <v type="int" >        6 </v>
  <v type="int" >       43 </v>
  <v type="int" >       45 </v>
  <v type="int" >       53 </v>
  <v type="int" >       50 </v>
  <v type="int" >        7 </v>
  <v type="int" >       18 </v>
  <v type="int" >        8 </v>
  <v type="int" >       40 </v>
  <v type="int" >       15 </v>
  <v type="int" >       32 </v>
  <v type="int" >       31 </v>
  <v type="int" >       64 </v>
  <v type="int" >       19 </v>
  <v type="int" >       22 </v>
  <v type="int" >       14 </v>
  <v type="int" >       49 </v>
  <v type="int" >       51 </v>
  <v type="int" >       24 </v>
  <v type="int" >       48 </v>
  <v type="int" >       56 </v>
  <v type="int" >       39 </v>
  <v type="int" >       16 </v>
  <v type="int" >       23 </v>
  <v type="int" >       63 </v>
  <v type="int" >       47 </v>
  <v type="int" >       65 </v>
  <v type="int" >       55 </v>
  <v type="int" >       66 </v>
 </varray>
 <kpoints>
  <generation param="Gamma">
   <v type="int" name="divisions">       1        1        1 </v>
   <v name="usershift">      0.00000000       0.00000000       0.00000000 </v>
   <v name="genvec1">      1.00000000       0.00000000       0.00000000 </v>
   <v name="genvec2">      0.00000000       1.00000000       0.00000000 </v>
   <v name="genvec3">      0.00000000       0.00000000       1.00000000 </v>
   <v name="shift">      0.00000000       0.00000000       0.00000000 </v>
  </generation>
  <varray name="kpointlist" >
   <v>       0.00000000       0.00000000       0.00000000 </v>
  </varray>
  <varray name="weights" >
   <v>       1.00000000 </v>
  </varray>
 </kpoints>
 <parameters>
  <separator name="general" >
   <i type="string" name="SYSTEM">Pt111 O2 adsorption system</i>
   <i type="logical" name="LCOMPAT"> F  </i>
  </separator>
  <separator name="electronic" >
   <i type="string" name="PREC">normal</i>
   <i name="ENMAX">    450.00000000</i>
   <i name="ENAUG">    605.39200000</i>
   <i name="EDIFF">      0.00000100</i>
   <i type="int" name="IALGO">    68</i>
   <i type="int" name="IWAVPR">    11</i>
   <i type="int" name="NBANDS">   392</i>
   <i name="NELECT">    652.00000000</i>
   <i type="int" name="TURBO">     0</i>
   <i type="int" name="IRESTART">     0</i>
   <i type="int" name="NREBOOT">     0</i>
   <i type="int" name="NMIN">     0</i>
   <i name="EREF">      0.00000000</i>
   <separator name="electronic smearing" >
    <i type="int" name="ISMEAR">     0</i>
    <i name="SIGMA">      0.10000000</i>
    <i name="KSPACING">      0.50000000</i>
    <i type="logical" name="KGAMMA"> T  </i>
   </separator>
   <separator name="electronic projectors" >
    <i type="logical" name="LREAL"> T  </i>
    <v name="ROPT">     -0.00050000     -0.00050000</v>
    <i type="int" name="LMAXPAW">  -100</i>
    <i type="int" name="LMAXMIX">     2</i>
    <i type="logical" name="NLSPLINE"> F  </i>
   </separator>
   <separator name="electronic startup" >
    <i type="int" name="ISTART">     0</i>
    <i type="int" name="ICHARG">     1</i>
    <i type="int" name="INIWAV">     1</i>
   </separator>
   <separator name="electronic spin" >
    <i type="int" name="ISPIN">     1</i>
    <i type="logical" name="LNONCOLLINEAR"> F  </i>
    <v name="MAGMOM">      1.00000000      1.00000000      1.00000000      1.00000000      1.00000000      1.00000000      1.00000000      1.00000000      1.00000000      1.00000000      1.00000000      1.00000000      1.00000000      1.00000000      1.00000000      1.00000000      1.00000000      1.00000000      1.00000000      1.00000000
      1.00000000      1.00000000      1.00000000      1.00000000      1.00000000      1.00000000      1.00000000      1.00000000      1.00000000      1.00000000      1.00000000      1.00000000      1.00000000      1.00000000      1.00000000      1.00000000      1.00000000      1.00000000      1.00000000      1.00000000
      1.00000000      1.00000000      1.00000000      1.00000000      1.00000000      1.00000000      1.00000000      1.00000000      1.00000000      1.00000000      1.00000000      1.00000000      1.00000000      1.00000000      1.00000000      1.00000000      1.00000000      1.00000000      1.00000000      1.00000000
      1.00000000      1.00000000      1.00000000      1.00000000      1.00000000      1.00000000</v>
    <i name="NUPDOWN">     -1.00000000</i>
    <i type="logical" name="LSORBIT"> F  </i>
    <v name="SAXIS">      0.00000000      0.00000000      1.00000000</v>
    <i type="logical" name="LSPIRAL"> F  </i>
    <v name="QSPIRAL">      0.00000000      0.00000000      0.00000000</v>
    <i type="logical" name="LZEROZ"> F  </i>
   </separator>
   <separator name="electronic exchange-correlation" >
    <i type="logical" name="LASPH"> F  </i>
    <i type="logical" name="LMETAGGA"> F  </i>
   </separator>
   <separator name="electronic convergence" >
    <i type="int" name="NELM">    60</i>
    <i type="int" name="NELMDL">    -5</i>
    <i type="int" name="NELMIN">     2</i>
    <i name="ENINI">    450.00000000</i>
    <separator name="electronic convergence detail" >
     <i type="logical" name="LDIAG"> T  </i>
     <i type="logical" name="LSUBROT"> F  </i>
     <i name="WEIMIN">      0.00100000</i>
     <i name="EBREAK">      0.00000000</i>
     <i name="DEPER">      0.30000000</i>
     <i type="int" name="NRMM">     4</i>
     <i name="TIME">      0.40000000</i>
    </separator>
   </separator>
   <separator name="electronic mixer" >
    <i name="AMIX">      0.40000000</i>
    <i name="BMIX">      1.00000000</i>
    <i name="AMIN">      0.10000000</i>
    <i name="AMIX_MAG">      1.60000000</i>
    <i name="BMIX_MAG">      1.00000000</i>
    <separator name="electronic mixer details" >
     <i type="int" name="IMIX">     4</i>
     <i type="logical" name="MIXFIRST"> F  </i>
     <i type="int" name="MAXMIX">   -45</i>
     <i name="WC">    100.00000000</i>
     <i type="int" name="INIMIX">     1</i>
     <i type="int" name="MIXPRE">     1</i>
     <i type="int" name="MREMOVE">     5</i>
    </separator>
   </separator>
   <separator name="electronic dipolcorrection" >
    <i type="logical" name="LDIPOL"> T  </i>
    <i type="logical" name="LMONO"> F  </i>
    <i type="int" name="IDIPOL">     3</i>
    <i name="EPSILON">      1.00000000</i>
    <v name="DIPOL">   -100.00000000   -100.00000000   -100.00000000</v>
    <i name="EFIELD">      0.00000000</i>
   </separator>
  </separator>
  <separator name="grids" >
   <i type="int" name="NGX">    50</i>
   <i type="int" name="NGY">    60</i>
   <i type="int" name="NGZ">   140</i>
   <i type="int" name="NGXF">   100</i>
   <i type="int" name="NGYF">   120</i>
   <i type="int" name="NGZF">   280</i>
   <i type="logical" name="ADDGRID"> F  </i>
  </separator>
  <separator name="ionic" >
   <i type="int" name="NSW">   829</i>
   <i type="int" name="IBRION">     5</i>
   <i type="int" name="MDALGO">     0</i>
   <i type="int" name="ISIF">     2</i>
   <i name="PSTRESS">      0.00000000</i>
   <i name="EDIFFG">     -0.02000000</i>
   <i type="int" name="NFREE">     2</i>
   <i name="POTIM">      0.01500000</i>
   <i name="SMASS">     -3.00000000</i>
   <i name="SCALEE">      1.00000000</i>
  </separator>
  <separator name="ionic md" >
   <i name="TEBEG">      0.00010000</i>
   <i name="TEEND">      0.00010000</i>
   <i type="int" name="NBLOCK">     1</i>
   <i type="int" name="KBLOCK">   829</i>
   <i type="int" name="NPACO">   256</i>
   <i name="APACO">     16.00000000</i>
  </separator>
  <separator name="symmetry" >
   <i type="int" name="ISYM">     0</i>
   <i name="SYMPREC">      0.00001000</i>
  </separator>
  <separator name="dos" >
   <i type="int" name="LORBIT">     0</i>
   <v name="RWIGS">     -1.00000000     -1.00000000</v>
   <i type="int" name="NEDOS">   301</i>
   <i name="EMIN">     10.00000000</i>
   <i name="EMAX">    -10.00000000</i>
   <i name="EFERMI">      0.00000000</i>
  </separator>
  <separator name="writing" >
   <i type="int" name="NWRITE">     3</i>
   <i type="logical" name="LWAVE"> F  </i>
   <i type="logical" name="LDOWNSAMPLE"> F  </i>
   <i type="logical" name="LCHARG"> F  </i>
   <i type="logical" name="LPARD"> F  </i>
   <i type="logical" name="LVTOT"> F  </i>
   <i type="logical" name="LVHAR"> F  </i>
   <i type="logical" name="LELF"> F  </i>
   <i type="logical" name="LOPTICS"> F  </i>
   <v name="STM">      0.00000000      0.00000000      0.00000000      0.00000000      0.00000000      0.00000000      0.00000000</v>
  </separator>
  <separator name="performance" >
   <i type="int" name="NPAR">     8</i>
   <i type="int" name="NSIM">     4</i>
   <i type="int" name="NBLK">    -1</i>
   <i type="logical" name="LPLANE"> T  </i>
   <i type="logical" name="LSCALAPACK"> T  </i>
   <i type="logical" name="LSCAAWARE"> F  </i>
   <i type="logical" name="LSCALU"> F  </i>
   <i type="logical" name="LASYNC"> F  </i>
   <i type="logical" name="LORBITALREAL"> F  </i>
  </separator>
  <separator name="miscellaneous" >
   <i type="int" name="IDIOT">     3</i>
   <i type="int" name="ISPECIAL">     0</i>
   <i type="logical" name="LMUSIC"> F  </i>
   <v name="POMASS">    195.08000000     16.00000000</v>
   <v name="DARWINR">      0.00000000      0.00000000</v>
   <v name="DARWINV">      1.00000000      1.00000000</v>
   <i type="logical" name="LCORR"> T  </i>
  </separator>
  <i type="logical" name="GGA_COMPAT"> T  </i>
  <i type="logical" name="LBERRY"> F  </i>
  <i type="int" name="ICORELEVEL">     0</i>
  <i type="logical" name="LDAU"> F  </i>
  <i type="int" name="I_CONSTRAINED_M">     0</i>
  <separator name="electronic exchange-correlation" >
   <i type="string" name="GGA">PE</i>
   <i type="int" name="VOSKOWN">     0</i>
   <i type="logical" name="LHFCALC"> F  </i>
   <i type="string" name="PRECFOCK"></i>
   <i type="logical" name="LSYMGRAD"> F  </i>
   <i type="logical" name="LHFONE"> F  </i>
   <i type="logical" name="LRHFCALC"> F  </i>
   <i type="logical" name="LTHOMAS"> F  </i>
   <i type="logical" name="LMODELHF"> F  </i>
   <i name="ENCUT4O">     -1.00000000</i>
   <i type="int" name="EXXOEP">     0</i>
   <i type="int" name="FOURORBIT">     0</i>
   <i name="AEXX">      0.00000000</i>
   <i name="HFALPHA">      0.00000000</i>
   <i name="MCALPHA">      0.00000000</i>
   <i name="ALDAX">      1.00000000</i>
   <i name="AGGAX">      1.00000000</i>
   <i name="ALDAC">      1.00000000</i>
   <i name="AGGAC">      1.00000000</i>
   <i type="int" name="NKREDX">     1</i>
   <i type="int" name="NKREDY">     1</i>
   <i type="int" name="NKREDZ">     1</i>
   <i type="logical" name="SHIFTRED"> F  </i>
   <i type="logical" name="ODDONLY"> F  </i>
   <i type="logical" name="EVENONLY"> F  </i>
   <i type="int" name="LMAXFOCK">     0</i>
   <i type="int" name="NMAXFOCKAE">     0</i>
   <i type="logical" name="LFOCKAEDFT"> F  </i>
   <i name="HFSCREEN">      0.00000000</i>
   <i name="HFSCREENC">      0.00000000</i>
   <i type="int" name="NBANDSGWLOW">     0</i>
  </separator>
  <separator name="vdW DFT" >
   <i type="logical" name="LUSE_VDW"> F  </i>
   <i name="Zab_VDW">     -0.84910000</i>
   <i name="PARAM1">      0.12340000</i>
   <i name="PARAM2">      1.00000000</i>
   <i name="PARAM3">      0.00000000</i>
  </separator>
  <separator name="model GW" >
   <i type="int" name="MODEL_GW">     0</i>
   <i name="MODEL_EPS0">     24.78288674</i>
   <i name="MODEL_ALPHA">      1.00000000</i>
  </separator>
  <separator name="linear response parameters" >
   <i type="logical" name="LEPSILON"> F  </i>
   <i type="logical" name="LRPA"> F  </i>
   <i type="logical" name="LNABLA"> F  </i>
   <i type="logical" name="LVEL"> F  </i>
   <i type="int" name="KINTER">     0</i>
   <i name="CSHIFT">      0.10000000</i>
   <i name="OMEGAMAX">     -1.00000000</i>
   <i name="DEG_THRESHOLD">      0.00200000</i>
   <i name="RTIME">     -0.10000000</i>
   <i name="WPLASMAI">      0.00000000</i>
   <v name="DFIELD">      0.00000000      0.00000000      0.00000000</v>
   <v name="WPLASMA">      0.00000000      0.00000000      0.00000000      0.00000000      0.00000000      0.00000000      0.00000000      0.00000000      0.00000000</v>
  </separator>
  <separator name="orbital magnetization" >
   <i type="logical" name="NUCIND"> F  </i>
   <v name="MAGPOS">      0.00000000      0.00000000      0.00000000</v>
   <i type="logical" name="LNICSALL"> T  </i>
   <i type="logical" name="ORBITALMAG"> F  </i>
   <i type="logical" name="LMAGBLOCH"> F  </i>
   <i type="logical" name="LCHIMAG"> F  </i>
   <i type="logical" name="LGAUGE"> T  </i>
   <i type="int" name="MAGATOM">     0</i>
   <v name="MAGDIPOL">      0.00000000      0.00000000      0.00000000</v>
   <v name="AVECCONST">      0.00000000      0.00000000      0.00000000</v>
  </separator>
  <separator name="response functions" >
   <i type="logical" name="LADDER"> F  </i>
   <i type="logical" name="LRPAFORCE"> F  </i>
   <i type="logical" name="LFXC"> F  </i>
   <i type="logical" name="LHARTREE"> T  </i>
   <i type="int" name="IBSE">     0</i>
   <v type="int" name="KPOINT">    -1     0     0     0</v>
   <i type="logical" name="LTCTE"> F  </i>
   <i type="logical" name="LTETE"> F  </i>
   <i type="logical" name="LTRIPLET"> F  </i>
   <i type="logical" name="LFXCEPS"> F  </i>
   <i type="logical" name="LFXHEG"> F  </i>
   <i type="int" name="NATURALO">     2</i>
   <i type="logical" name="L2ORDER"> F  </i>
   <i type="logical" name="LMP2LT"> F  </i>
   <i type="logical" name="LUSEW"> F  </i>
   <i name="ENCUTGW">     -2.00000000</i>
   <i name="ENCUTGWSOFT">     -2.00000000</i>
   <i name="ENCUTLF">     -1.00000000</i>
   <i type="int" name="LMAXMP2">    -1</i>
   <i name="SCISSOR">      0.00000000</i>
   <i type="int" name="NOMEGA">     0</i>
   <i type="int" name="NOMEGAR">     0</i>
   <i type="int" name="NBANDSGW">    -1</i>
   <i type="int" name="NBANDSO">    -1</i>
   <i type="int" name="NBANDSV">    -1</i>
   <i type="int" name="NELM">     1</i>
   <i type="int" name="NELMHF">     1</i>
   <i type="int" name="DIM">     3</i>
   <i type="int" name="ANTIRES">     0</i>
   <i name="OMEGAMAX">    -30.00000000</i>
   <i name="OMEGAMIN">    -30.00000000</i>
   <i name="OMEGATL">   -200.00000000</i>
   <i type="int" name="OMEGAGRID">   140</i>
   <i name="CSHIFT">     -0.10000000</i>
   <i type="logical" name="SELFENERGY"> F  </i>
   <i type="logical" name="LSPECTRAL"> F  </i>
   <i type="logical" name="LSPECTRALGW"> F  </i>
   <i type="logical" name="LSINGLES"> F  </i>
   <i type="logical" name="LFERMIGW"> F  </i>
   <i type="logical" name="ODDONLYGW"> F  </i>
   <i type="logical" name="EVENONLYGW"> F  </i>
   <i type="int" name="NKREDLFX">     1</i>
   <i type="int" name="NKREDLFY">     1</i>
   <i type="int" name="NKREDLFZ">     1</i>
   <i type="int" name="MAXMEM">  2800</i>
   <i type="int" name="TELESCOPE">     0</i>
   <i type="int" name="TAUPAR">     1</i>
   <i type="int" name="OMEGAPAR">    -1</i>
   <i name="LAMBDA">      1.00000000</i>
  </separator>
  <separator name="External order field" >
   <i name="OFIELD_KAPPA">      0.00000000</i>
   <v name="OFIELD_K">      0.00000000      0.00000000      0.00000000</v>
   <i name="OFIELD_Q6_NEAR">      0.00000000</i>
   <i name="OFIELD_Q6_FAR">      0.00000000</i>
   <i name="OFIELD_A">      0.00000000</i>
  </separator>
 </parameters>
 <atominfo>
  <atoms>      66 </atoms>
  <types>       2 </types>
  <array name="atoms" >
   <dimension dim="1">ion</dimension>
   <field type="string">element</field>
   <field type="int">atomtype</field>
   <set>
    <rc><c>Pt</c><c>   1</c></rc>
    <rc><c>Pt</c><c>   1</c></rc>
    <rc><c>Pt</c><c>   1</c></rc>
    <rc><c>Pt</c><c>   1</c></rc>
    <rc><c>Pt</c><c>   1</c></rc>
    <rc><c>Pt</c><c>   1</c></rc>
    <rc><c>Pt</c><c>   1</c></rc>
    <rc><c>Pt</c><c>   1</c></rc>
    <rc><c>Pt</c><c>   1</c></rc>
    <rc><c>Pt</c><c>   1</c></rc>
    <rc><c>Pt</c><c>   1</c></rc>
    <rc><c>Pt</c><c>   1</c></rc>
    <rc><c>Pt</c><c>   1</c></rc>
    <rc><c>Pt</c><c>   1</c></rc>
    <rc><c>Pt</c><c>   1</c></rc>
    <rc><c>Pt</c><c>   1</c></rc>
    <rc><c>Pt</c><c>   1</c></rc>
    <rc><c>Pt</c><c>   1</c></rc>
    <rc><c>Pt</c><c>   1</c></rc>
    <rc><c>Pt</c><c>   1</c></rc>
    <rc><c>Pt</c><c>   1</c></rc>
    <rc><c>Pt</c><c>   1</c></rc>
    <rc><c>Pt</c><c>   1</c></rc>
    <rc><c>Pt</c><c>   1</c></rc>
    <rc><c>Pt</c><c>   1</c></rc>
    <rc><c>Pt</c><c>   1</c></rc>
    <rc><c>Pt</c><c>   1</c></rc>
    <rc><c>Pt</c><c>   1</c></rc>
    <rc><c>Pt</c><c>   1</c></rc>
    <rc><c>Pt</c><c>   1</c></rc>
    <rc><c>Pt</c><c>   1</c></rc>
    <rc><c>Pt</c><c>   1</c></rc>
    <rc><c>Pt</c><c>   1</c></rc>
    <rc><c>Pt</c><c>   1</c></rc>
    <rc><c>Pt</c><c>   1</c></rc>
    <rc><c>Pt</c><c>   1</c></rc>
    <rc><c>Pt</c><c>   1</c></rc>
    <rc><c>Pt</c><c>   1</c></rc>
    <rc><c>Pt</c><c>   1</c></rc>
    <rc><c>Pt</c><c>   1</c></rc>
    <rc><c>Pt</c><c>   1</c></rc>
    <rc><c>Pt</c><c>   1</c></rc>
    <rc><c>Pt</c><c>   1</c></rc>
    <rc><c>Pt</c><c>   1</c></rc>
    <rc><c>Pt</c><c>   1</c></rc>
    <rc><c>Pt</c><c>   1</c></rc>
    <rc><c>Pt</c><c>   1</c></rc>
    <rc><c>Pt</c><c>   1</c></rc>
    <rc><c>Pt</c><c>   1</c></rc>
    <rc><c>Pt</c><c>   1</c></rc>
    <rc><c>Pt</c><c>   1</c></rc>
    <rc><c>Pt</c><c>   1</c></rc>
    <rc><c>Pt</c><c>   1</c></rc>
    <rc><c>Pt</c><c>   1</c></rc>
    <rc><c>Pt</c><c>   1</c></rc>
    <rc><c>Pt</c><c>   1</c></rc>
    <rc><c>Pt</c><c>   1</c></rc>
    <rc><c>Pt</c><c>   1</c></rc>
    <rc><c>Pt</c><c>   1</c></rc>
    <rc><c>Pt</c><c>   1</c></rc>
    <rc><c>Pt</c><c>   1</c></rc>
    <rc><c>Pt</c><c>   1</c></rc>
    <rc><c>Pt</c><c>   1</c></rc>
    <rc><c>Pt</c><c>   1</c></rc>
    <rc><c>O </c><c>   2</c></rc>
    <rc><c>O </c><c>   2</c></rc>
   </set>
  </array>
  <array name="atomtypes" >
   <dimension dim="1">type</dimension>
   <field type="int">atomspertype</field>
   <field type="string">element</field>
   <field>mass</field>
   <field>valence</field>
   <field type="string">pseudopotential</field>
   <set>
    <rc><c>  64</c><c>Pt</c><c>    195.08000000</c><c>     10.00000000</c><c>  PAW_PBE Pt 04Feb2005                  </c></rc>
    <rc><c>   2</c><c>O </c><c>     16.00000000</c><c>      6.00000000</c><c>  PAW_PBE O 08Apr2002                   </c></rc>
   </set>
  </array>
 </atominfo>
 <structure name="initialpos" >
  <crystal>
   <varray name="basis" >
    <v>       9.71779202       0.00000000       0.00000000 </v>
    <v>       0.00000000      11.22113968       0.00000000 </v>
    <v>       0.00000000       0.00000000      25.00000000 </v>
   </varray>
   <i name="volume">   2726.11754094 </i>
   <varray name="rec_basis" >
    <v>       0.10290403       0.00000000       0.00000000 </v>
    <v>       0.00000000       0.08911751       0.00000000 </v>
    <v>       0.00000000       0.00000000       0.04000000 </v>
   </varray>
  </crystal>
  <varray name="positions" >
   <v>       0.00000000       0.00000000       0.00000000 </v>
   <v>       0.33333333       0.00000000       0.09162022 </v>
   <v>       0.16647271       0.99974028       0.17936943 </v>
   <v>       0.25000000       0.12500000       0.00000000 </v>
   <v>       0.08333333       0.12500000       0.09162022 </v>
   <v>       0.41819215       0.12550146       0.18130929 </v>
   <v>       0.99844555       0.99897937       0.27101523 </v>
   <v>       0.24579892       0.11939021       0.26943358 </v>
   <v>       0.00000000       0.25000000       0.00000000 </v>
   <v>       0.33333333       0.25000000       0.09162022 </v>
   <v>       0.16809496       0.25118813       0.18078224 </v>
   <v>       0.25000000       0.37500000       0.00000000 </v>
   <v>       0.08333333       0.37500000       0.09162022 </v>
   <v>       0.41761863       0.37494708       0.18179363 </v>
   <v>       0.99886560       0.24808238       0.27079957 </v>
   <v>       0.24190535       0.37501640       0.27212767 </v>
   <v>       0.00000000       0.50000000       0.00000000 </v>
   <v>       0.33333333       0.50000000       0.09162022 </v>
   <v>       0.16809541       0.49881214       0.18077949 </v>
   <v>       0.25000000       0.62500000       0.00000000 </v>
   <v>       0.08333333       0.62500000       0.09162022 </v>
   <v>       0.41815147       0.62445357       0.18131337 </v>
   <v>       0.99885913       0.50197489       0.27078573 </v>
   <v>       0.24573583       0.63062476       0.26944976 </v>
   <v>       0.00000000       0.75000000       0.00000000 </v>
   <v>       0.33333333       0.75000000       0.09162022 </v>
   <v>       0.16644707       0.75027546       0.17935895 </v>
   <v>       0.25000000       0.87500000       0.00000000 </v>
   <v>       0.08333333       0.87500000       0.09162022 </v>
   <v>       0.41638067       0.87498772       0.17988393 </v>
   <v>       0.99843923       0.75105184       0.27102508 </v>
   <v>       0.24854021       0.87499907       0.27093771 </v>
   <v>       0.50000000       0.00000000       0.00000000 </v>
   <v>       0.83333333       0.00000000       0.09162022 </v>
   <v>       0.66711666       0.99944989       0.18014439 </v>
   <v>       0.75000000       0.12500000       0.00000000 </v>
   <v>       0.58333333       0.12500000       0.09162022 </v>
   <v>       0.91680368       0.12550317       0.17972480 </v>
   <v>       0.50065594       0.99680981       0.27090236 </v>
   <v>       0.75371717       0.12240348       0.27092959 </v>
   <v>       0.50000000       0.25000000       0.00000000 </v>
   <v>       0.83333333       0.25000000       0.09162022 </v>
   <v>       0.66327966       0.24894479       0.18208954 </v>
   <v>       0.75000000       0.37500000       0.00000000 </v>
   <v>       0.58333333       0.37500000       0.09162022 </v>
   <v>       0.91585789       0.37500854       0.17958245 </v>
   <v>       0.50890243       0.24758998       0.27415992 </v>
   <v>       0.75684070       0.37502688       0.27029599 </v>
   <v>       0.50000000       0.50000000       0.00000000 </v>
   <v>       0.83333333       0.50000000       0.09162022 </v>
   <v>       0.66326526       0.50107500       0.18209235 </v>
   <v>       0.75000000       0.62500000       0.00000000 </v>
   <v>       0.58333333       0.62500000       0.09162022 </v>
   <v>       0.91681909       0.62449866       0.17973786 </v>
   <v>       0.50877471       0.50235685       0.27415411 </v>
   <v>       0.75367722       0.62761686       0.27093433 </v>
   <v>       0.50000000       0.75000000       0.00000000 </v>
   <v>       0.83333333       0.75000000       0.09162022 </v>
   <v>       0.66715457       0.75053681       0.18015382 </v>
   <v>       0.75000000       0.87500000       0.00000000 </v>
   <v>       0.58333333       0.87500000       0.09162022 </v>
   <v>       0.91691995       0.87500257       0.17999896 </v>
   <v>       0.50066947       0.75316328       0.27090294 </v>
   <v>       0.75101845       0.87501690       0.27127340 </v>
   <v>       0.41756823       0.29584546       0.33877803 </v>
   <v>       0.41742062       0.45397588       0.33874630 </v>
  </varray>
  <varray name="selective"  type="logical" >
   <v type="logical" >  F  F  F </v>
   <v type="logical" >  F  F  F </v>
   <v type="logical" >  F  F  F </v>
   <v type="logical" >  F  F  F </v>
   <v type="logical" >  F  F  F </v>
   <v type="logical" >  F  F  F </v>
   <v type="logical" >  F  F  F </v>
   <v type="logical" >  F  F  F </v>
   <v type="logical" >  F  F  F </v>
   <v type="logical" >  F  F  F </v>
   <v type="logical" >  F  F  F </v>
   <v type="logical" >  F  F  F </v>
   <v type="logical" >  F  F  F </v>
   <v type="logical" >  F  F  F </v>
   <v type="logical" >  F  F  F </v>
   <v type="logical" >  F  F  F </v>
   <v type="logical" >  F  F  F </v>
   <v type="logical" >  F  F  F </v>
   <v type="logical" >  F  F  F </v>
   <v type="logical" >  F  F  F </v>
   <v type="logical" >  F  F  F </v>
   <v type="logical" >  F  F  F </v>
   <v type="logical" >  F  F  F </v>
   <v type="logical" >  F  F  F </v>
   <v type="logical" >  F  F  F </v>
   <v type="logical" >  F  F  F </v>
   <v type="logical" >  F  F  F </v>
   <v type="logical" >  F  F  F </v>
   <v type="logical" >  F  F  F </v>
   <v type="logical" >  F  F  F </v>
   <v type="logical" >  F  F  F </v>
   <v type="logical" >  F  F  F </v>
   <v type="logical" >  F  F  F </v>
   <v type="logical" >  F  F  F </v>
   <v type="logical" >  F  F  F </v>
   <v type="logical" >  F  F  F </v>
   <v type="logical" >  F  F  F </v>
   <v type="logical" >  F  F  F </v>
   <v type="logical" >  F  F  F </v>
   <v type="logical" >  F  F  F </v>
   <v type="logical" >  F  F  F </v>
   <v type="logical" >  F  F  F </v>
   <v type="logical" >  F  F  F </v>
   <v type="logical" >  F  F  F </v>
   <v type="logical" >  F  F  F </v>
   <v type="logical" >  F  F  F </v>
   <v type="logical" >  F  F  F </v>
   <v type="logical" >  F  F  F </v>
   <v type="logical" >  F  F  F </v>
   <v type="logical" >  F  F  F </v>
   <v type="logical" >  F  F  F </v>
   <v type="logical" >  F  F  F </v>
   <v type="logical" >  F  F  F </v>
   <v type="logical" >  F  F  F </v>
   <v type="logical" >  F  F  F </v>
   <v type="logical" >  F  F  F </v>
   <v type="logical" >  F  F  F </v>
   <v type="logical" >  F  F  F </v>
   <v type="logical" >  F  F  F </v>
   <v type="logical" >  F  F  F </v>
   <v type="logical" >  F  F  F </v>
   <v type="logical" >  F  F  F </v>
   <v type="logical" >  F  F  F </v>
   <v type="logical" >  F  F  F </v>
   <v type="logical" >  T  T  T </v>
   <v type="logical" >  T  T  T </v>
  </varray>
  <nose>
   <v>      -3.00000000       0.00000000       0.00010000       0.00010000 </v>
  </nose>
 </structure>
 <calculation>
  <scstep>
   <time name="dav">    2.05    2.06</time>
   <time name="total">    2.09    2.11</time>
   <dipole>
    <v name="dipole">      0.00000000       0.00000000      -0.00038854 </v>
    <i name="Tr[quadrupol]"> -12497.38157460 </i>
    <i name="Echarged">      0.00000000 </i>
    <i name="Edipol_quadrupol">      0.00000000 </i>
    <i name="Eion">      0.00000000 </i>
   </dipole>
   <energy>
    <i name="alphaZ">   1466.13059487 </i>
    <i name="ewald"> 248409.00027464 </i>
    <i name="hartreedc">-298366.10477921 </i>
    <i name="XCdc">    272.97230623 </i>
    <i name="pawpsdc">  45245.00522118 </i>
    <i name="pawaedc"> -43438.47517393 </i>
    <i name="eentropy">     -0.13387323 </i>
    <i name="bandstr">   3188.62843332 </i>
    <i name="atom">  47527.87699037 </i>
    <i name="e_fr_energy">   4304.89999424 </i>
    <i name="e_wo_entrp">   4305.03386747 </i>
    <i name="e_0_energy">   4304.96693085 </i>
   </energy>
  </scstep>
  <scstep>
   <time name="dav">    2.21    2.22</time>
   <time name="total">    2.21    2.22</time>
   <dipole>
    <v name="dipole">      0.00000000       0.00000000      -0.00038854 </v>
    <i name="Tr[quadrupol]"> -12497.38157460 </i>
    <i name="Echarged">      0.00000000 </i>
    <i name="Edipol_quadrupol">      0.00000000 </i>
    <i name="Eion">      0.00000000 </i>
   </dipole>
   <energy>
    <i name="e_fr_energy">    -58.01279251 </i>
    <i name="e_wo_entrp">    -57.72183454 </i>
    <i name="e_0_energy">    -57.86731353 </i>
   </energy>
  </scstep>
  <scstep>
   <time name="dav">    2.18    2.18</time>
   <time name="total">    2.18    2.18</time>
   <dipole>
    <v name="dipole">      0.00000000       0.00000000      -0.00038854 </v>
    <i name="Tr[quadrupol]"> -12497.38157460 </i>
    <i name="Echarged">      0.00000000 </i>
    <i name="Edipol_quadrupol">      0.00000000 </i>
    <i name="Eion">      0.00000000 </i>
   </dipole>
   <energy>
    <i name="e_fr_energy">   -386.75967064 </i>
    <i name="e_wo_entrp">   -385.95857686 </i>
    <i name="e_0_energy">   -386.35912375 </i>
   </energy>
  </scstep>
  <scstep>
   <time name="dav">    2.37    2.38</time>
   <time name="total">    2.37    2.38</time>
   <dipole>
    <v name="dipole">      0.00000000       0.00000000      -0.00038854 </v>
    <i name="Tr[quadrupol]"> -12497.38157460 </i>
    <i name="Echarged">      0.00000000 </i>
    <i name="Edipol_quadrupol">      0.00000000 </i>
    <i name="Eion">      0.00000000 </i>
   </dipole>
   <energy>
    <i name="e_fr_energy">   -404.70548356 </i>
    <i name="e_wo_entrp">   -403.75044802 </i>
    <i name="e_0_energy">   -404.22796579 </i>
   </energy>
  </scstep>
  <scstep>
   <time name="dav">    2.30    2.30</time>
   <time name="total">    2.33    2.34</time>
   <dipole>
    <v name="dipole">      0.00000000       0.00000000      -0.00038854 </v>
    <i name="Tr[quadrupol]"> -12497.38157460 </i>
    <i name="Echarged">      0.00000000 </i>
    <i name="Edipol_quadrupol">      0.00000000 </i>
    <i name="Eion">      0.00000000 </i>
   </dipole>
   <energy>
    <i name="e_fr_energy">   -405.26765366 </i>
    <i name="e_wo_entrp">   -404.30606526 </i>
    <i name="e_0_energy">   -404.78685946 </i>
   </energy>
  </scstep>
  <scstep>
   <time name="diag">    0.26    0.26</time>
   <time name="diis">    0.80    0.80</time>
   <time name="orth">    0.13    0.13</time>
   <time name="total">    1.27    1.27</time>
   <dipole>
    <v name="dipole">      0.00000000       0.00000000       0.42397888 </v>
    <i name="Tr[quadrupol]"> -12484.26857280 </i>
    <i name="Echarged">      0.00000000 </i>
    <i name="Edipol_quadrupol">      0.00000000 </i>
    <i name="Eion">      0.00000000 </i>
   </dipole>
   <energy>
    <i name="e_fr_energy">   -411.29548802 </i>
    <i name="e_wo_entrp">   -410.77871642 </i>
    <i name="e_0_energy">   -411.03710222 </i>
   </energy>
  </scstep>
  <scstep>
   <time name="diag">    0.26    0.26</time>
   <time name="diis">    0.78    0.78</time>
   <time name="orth">    0.13    0.13</time>
   <time name="total">    1.25    1.25</time>
   <dipole>
    <v name="dipole">      0.00000000       0.00000000      -1.61368774 </v>
    <i name="Tr[quadrupol]"> -12504.08146645 </i>
    <i name="Echarged">      0.00000000 </i>
    <i name="Edipol_quadrupol">      0.00000000 </i>
    <i name="Eion">      0.00000000 </i>
   </dipole>
   <energy>
    <i name="e_fr_energy">   -448.72124852 </i>
    <i name="e_wo_entrp">   -448.25603985 </i>
    <i name="e_0_energy">   -448.48864418 </i>
   </energy>
  </scstep>
  <scstep>
   <time name="diag">    0.26    0.26</time>
   <time name="diis">    0.79    0.79</time>
   <time name="orth">    0.13    0.13</time>
   <time name="total">    1.25    1.25</time>
   <dipole>
    <v name="dipole">      0.00000000       0.00000000       3.47338348 </v>
    <i name="Tr[quadrupol]"> -12498.15923845 </i>
    <i name="Echarged">      0.00000000 </i>
    <i name="Edipol_quadrupol">      0.00000000 </i>
    <i name="Eion">      0.00000000 </i>
   </dipole>
   <energy>
    <i name="e_fr_energy">   -566.88539574 </i>
    <i name="e_wo_entrp">   -566.69631582 </i>
    <i name="e_0_energy">   -566.79085578 </i>
   </energy>
  </scstep>
  <scstep>
   <time name="diag">    0.27    0.27</time>
   <time name="diis">    0.80    0.80</time>
   <time name="orth">    0.13    0.13</time>
   <time name="total">    1.27    1.28</time>
   <dipole>
    <v name="dipole">      0.00000000       0.00000000      -2.66645611 </v>
    <i name="Tr[quadrupol]"> -12494.76302559 </i>
    <i name="Echarged">      0.00000000 </i>
    <i name="Edipol_quadrupol">      0.00000000 </i>
    <i name="Eion">      0.00000000 </i>
   </dipole>
   <energy>
    <i name="e_fr_energy">   -479.39347246 </i>
    <i name="e_wo_entrp">   -479.17288943 </i>
    <i name="e_0_energy">   -479.28318095 </i>
   </energy>
  </scstep>
  <scstep>
   <time name="diag">    0.26    0.26</time>
   <time name="diis">    0.79    0.79</time>
   <time name="orth">    0.13    0.13</time>
   <time name="total">    1.25    1.25</time>
   <dipole>
    <v name="dipole">      0.00000000       0.00000000       0.38827232 </v>
    <i name="Tr[quadrupol]"> -12500.68841986 </i>
    <i name="Echarged">      0.00000000 </i>
    <i name="Edipol_quadrupol">      0.00000000 </i>
    <i name="Eion">      0.00000000 </i>
   </dipole>
   <energy>
    <i name="e_fr_energy">   -404.08654322 </i>
    <i name="e_wo_entrp">   -403.54308061 </i>
    <i name="e_0_energy">   -403.81481192 </i>
   </energy>
  </scstep>
  <scstep>
   <time name="diag">    0.26    0.26</time>
   <time name="diis">    0.79    0.79</time>
   <time name="orth">    0.13    0.13</time>
   <time name="total">    1.26    1.26</time>
   <dipole>
    <v name="dipole">      0.00000000       0.00000000       0.26340745 </v>
    <i name="Tr[quadrupol]"> -12496.17228497 </i>
    <i name="Echarged">      0.00000000 </i>
    <i name="Edipol_quadrupol">      0.00000000 </i>
    <i name="Eion">      0.00000000 </i>
   </dipole>
   <energy>
    <i name="e_fr_energy">   -391.47392724 </i>
    <i name="e_wo_entrp">   -390.88837701 </i>
    <i name="e_0_energy">   -391.18115213 </i>
   </energy>
  </scstep>
  <scstep>
   <time name="diag">    0.26    0.26</time>
   <time name="diis">    0.80    0.80</time>
   <time name="orth">    0.13    0.13</time>
   <time name="total">    1.26    1.26</time>
   <dipole>
    <v name="dipole">      0.00000000       0.00000000       0.26416935 </v>
    <i name="Tr[quadrupol]"> -12495.21978037 </i>
    <i name="Echarged">      0.00000000 </i>
    <i name="Edipol_quadrupol">      0.00000000 </i>
    <i name="Eion">      0.00000000 </i>
   </dipole>
   <energy>
    <i name="e_fr_energy">   -380.73719003 </i>
    <i name="e_wo_entrp">   -379.98052696 </i>
    <i name="e_0_energy">   -380.35885849 </i>
   </energy>
  </scstep>
  <scstep>
   <time name="diag">    0.26    0.26</time>
   <time name="diis">    0.79    0.79</time>
   <time name="orth">    0.14    0.14</time>
   <time name="total">    1.26    1.26</time>
   <dipole>
    <v name="dipole">      0.00000000       0.00000000       0.20045296 </v>
    <i name="Tr[quadrupol]"> -12495.00114040 </i>
    <i name="Echarged">      0.00000000 </i>
    <i name="Edipol_quadrupol">      0.00000000 </i>
    <i name="Eion">      0.00000000 </i>
   </dipole>
   <energy>
    <i name="e_fr_energy">   -379.65495029 </i>
    <i name="e_wo_entrp">   -378.92183752 </i>
    <i name="e_0_energy">   -379.28839391 </i>
   </energy>
  </scstep>
  <scstep>
   <time name="diag">    0.26    0.26</time>
   <time name="diis">    0.78    0.78</time>
   <time name="orth">    0.13    0.13</time>
   <time name="total">    1.24    1.25</time>
   <dipole>
    <v name="dipole">      0.00000000       0.00000000       0.15207687 </v>
    <i name="Tr[quadrupol]"> -12494.80795702 </i>
    <i name="Echarged">      0.00000000 </i>
    <i name="Edipol_quadrupol">      0.00000000 </i>
    <i name="Eion">      0.00000000 </i>
   </dipole>
   <energy>
    <i name="e_fr_energy">   -378.37654255 </i>
    <i name="e_wo_entrp">   -377.50739284 </i>
    <i name="e_0_energy">   -377.94196769 </i>
   </energy>
  </scstep>
  <scstep>
   <time name="diag">    0.26    0.26</time>
   <time name="diis">    0.78    0.78</time>
   <time name="orth">    0.13    0.13</time>
   <time name="total">    1.24    1.24</time>
   <dipole>
    <v name="dipole">      0.00000000       0.00000000       0.12254809 </v>
    <i name="Tr[quadrupol]"> -12494.76920074 </i>
    <i name="Echarged">      0.00000000 </i>
    <i name="Edipol_quadrupol">      0.00000000 </i>
    <i name="Eion">      0.00000000 </i>
   </dipole>
   <energy>
    <i name="e_fr_energy">   -377.67981060 </i>
    <i name="e_wo_entrp">   -376.69691976 </i>
    <i name="e_0_energy">   -377.18836518 </i>
   </energy>
  </scstep>
  <scstep>
   <time name="diag">    0.26    0.26</time>
   <time name="diis">    0.79    0.79</time>
   <time name="orth">    0.13    0.13</time>
   <time name="total">    1.25    1.25</time>
   <dipole>
    <v name="dipole">      0.00000000       0.00000000       0.10872451 </v>
    <i name="Tr[quadrupol]"> -12494.62668448 </i>
    <i name="Echarged">      0.00000000 </i>
    <i name="Edipol_quadrupol">      0.00000000 </i>
    <i name="Eion">      0.00000000 </i>
   </dipole>
   <energy>
    <i name="e_fr_energy">   -377.58467485 </i>
    <i name="e_wo_entrp">   -376.60453228 </i>
    <i name="e_0_energy">   -377.09460356 </i>
   </energy>
  </scstep>
  <scstep>
   <time name="diag">    0.26    0.26</time>
   <time name="diis">    0.78    0.78</time>
   <time name="orth">    0.13    0.13</time>
   <time name="total">    1.25    1.25</time>
   <dipole>
    <v name="dipole">      0.00000000       0.00000000       0.10501544 </v>
    <i name="Tr[quadrupol]"> -12494.52144877 </i>
    <i name="Echarged">      0.00000000 </i>
    <i name="Edipol_quadrupol">      0.00000000 </i>
    <i name="Eion">      0.00000000 </i>
   </dipole>
   <energy>
    <i name="e_fr_energy">   -377.32596533 </i>
    <i name="e_wo_entrp">   -376.32238079 </i>
    <i name="e_0_energy">   -376.82417306 </i>
   </energy>
  </scstep>
  <scstep>
   <time name="diag">    0.26    0.26</time>
   <time name="diis">    0.80    0.80</time>
   <time name="orth">    0.13    0.13</time>
   <time name="total">    1.26    1.27</time>
   <dipole>
    <v name="dipole">      0.00000000       0.00000000       0.09478800 </v>
    <i name="Tr[quadrupol]"> -12494.51614224 </i>
    <i name="Echarged">      0.00000000 </i>
    <i name="Edipol_quadrupol">      0.00000000 </i>
    <i name="Eion">      0.00000000 </i>
   </dipole>
   <energy>
    <i name="e_fr_energy">   -377.36762851 </i>
    <i name="e_wo_entrp">   -376.38487500 </i>
    <i name="e_0_energy">   -376.87625175 </i>
   </energy>
  </scstep>
  <scstep>
   <time name="diag">    0.26    0.26</time>
   <time name="diis">    0.78    0.78</time>
   <time name="orth">    0.13    0.13</time>
   <time name="total">    1.25    1.25</time>
   <dipole>
    <v name="dipole">      0.00000000       0.00000000       0.08846650 </v>
    <i name="Tr[quadrupol]"> -12494.77072569 </i>
    <i name="Echarged">      0.00000000 </i>
    <i name="Edipol_quadrupol">      0.00000000 </i>
    <i name="Eion">      0.00000000 </i>
   </dipole>
   <energy>
    <i name="e_fr_energy">   -377.27470659 </i>
    <i name="e_wo_entrp">   -376.25753726 </i>
    <i name="e_0_energy">   -376.76612192 </i>
   </energy>
  </scstep>
  <scstep>
   <time name="diag">    0.26    0.26</time>
   <time name="diis">    0.79    0.79</time>
   <time name="orth">    0.13    0.13</time>
   <time name="total">    1.26    1.26</time>
   <dipole>
    <v name="dipole">      0.00000000       0.00000000       0.10020997 </v>
    <i name="Tr[quadrupol]"> -12494.91588442 </i>
    <i name="Echarged">      0.00000000 </i>
    <i name="Edipol_quadrupol">      0.00000000 </i>
    <i name="Eion">      0.00000000 </i>
   </dipole>
   <energy>
    <i name="e_fr_energy">   -377.25203313 </i>
    <i name="e_wo_entrp">   -376.23024861 </i>
    <i name="e_0_energy">   -376.74114087 </i>
   </energy>
  </scstep>
  <scstep>
   <time name="diag">    0.27    0.27</time>
   <time name="diis">    0.79    0.79</time>
   <time name="orth">    0.13    0.13</time>
   <time name="total">    1.27    1.27</time>
   <dipole>
    <v name="dipole">      0.00000000       0.00000000       0.11749043 </v>
    <i name="Tr[quadrupol]"> -12495.02016514 </i>
    <i name="Echarged">      0.00000000 </i>
    <i name="Edipol_quadrupol">      0.00000000 </i>
    <i name="Eion">      0.00000000 </i>
   </dipole>
   <energy>
    <i name="e_fr_energy">   -377.22811943 </i>
    <i name="e_wo_entrp">   -376.20977801 </i>
    <i name="e_0_energy">   -376.71894872 </i>
   </energy>
  </scstep>
  <scstep>
   <time name="diag">    0.26    0.26</time>
   <time name="diis">    0.78    0.78</time>
   <time name="orth">    0.13    0.13</time>
   <time name="total">    1.24    1.25</time>
   <dipole>
    <v name="dipole">      0.00000000       0.00000000       0.12468050 </v>
    <i name="Tr[quadrupol]"> -12495.04220399 </i>
    <i name="Echarged">      0.00000000 </i>
    <i name="Edipol_quadrupol">      0.00000000 </i>
    <i name="Eion">      0.00000000 </i>
   </dipole>
   <energy>
    <i name="e_fr_energy">   -377.20349797 </i>
    <i name="e_wo_entrp">   -376.18032562 </i>
    <i name="e_0_energy">   -376.69191179 </i>
   </energy>
  </scstep>
  <scstep>
   <time name="diag">    0.26    0.26</time>
   <time name="diis">    0.79    0.79</time>
   <time name="orth">    0.13    0.13</time>
   <time name="total">    1.26    1.26</time>
   <dipole>
    <v name="dipole">      0.00000000       0.00000000       0.12258621 </v>
    <i name="Tr[quadrupol]"> -12495.10381107 </i>
    <i name="Echarged">      0.00000000 </i>
    <i name="Edipol_quadrupol">      0.00000000 </i>
    <i name="Eion">      0.00000000 </i>
   </dipole>
   <energy>
    <i name="e_fr_energy">   -377.20461276 </i>
    <i name="e_wo_entrp">   -376.17860025 </i>
    <i name="e_0_energy">   -376.69160650 </i>
   </energy>
  </scstep>
  <scstep>
   <time name="diag">    0.26    0.26</time>
   <time name="diis">    0.79    0.79</time>
   <time name="orth">    0.13    0.13</time>
   <time name="total">    1.26    1.26</time>
   <dipole>
    <v name="dipole">      0.00000000       0.00000000       0.12117002 </v>
    <i name="Tr[quadrupol]"> -12495.18136600 </i>
    <i name="Echarged">      0.00000000 </i>
    <i name="Edipol_quadrupol">      0.00000000 </i>
    <i name="Eion">      0.00000000 </i>
   </dipole>
   <energy>
    <i name="e_fr_energy">   -377.20266995 </i>
    <i name="e_wo_entrp">   -376.17661962 </i>
    <i name="e_0_energy">   -376.68964479 </i>
   </energy>
  </scstep>
  <scstep>
   <time name="diag">    0.26    0.26</time>
   <time name="diis">    0.79    0.79</time>
   <time name="orth">    0.13    0.13</time>
   <time name="total">    1.26    1.26</time>
   <dipole>
    <v name="dipole">      0.00000000       0.00000000       0.12188067 </v>
    <i name="Tr[quadrupol]"> -12495.22417669 </i>
    <i name="Echarged">      0.00000000 </i>
    <i name="Edipol_quadrupol">      0.00000000 </i>
    <i name="Eion">      0.00000000 </i>
   </dipole>
   <energy>
    <i name="e_fr_energy">   -377.19930249 </i>
    <i name="e_wo_entrp">   -376.17546512 </i>
    <i name="e_0_energy">   -376.68738380 </i>
   </energy>
  </scstep>
  <scstep>
   <time name="diag">    0.26    0.26</time>
   <time name="diis">    0.79    0.79</time>
   <time name="orth">    0.13    0.13</time>
   <time name="total">    1.25    1.27</time>
   <dipole>
    <v name="dipole">      0.00000000       0.00000000       0.12474246 </v>
    <i name="Tr[quadrupol]"> -12495.23353479 </i>
    <i name="Echarged">      0.00000000 </i>
    <i name="Edipol_quadrupol">      0.00000000 </i>
    <i name="Eion">      0.00000000 </i>
   </dipole>
   <energy>
    <i name="e_fr_energy">   -377.19698700 </i>
    <i name="e_wo_entrp">   -376.17241388 </i>
    <i name="e_0_energy">   -376.68470044 </i>
   </energy>
  </scstep>
  <scstep>
   <time name="diag">    0.26    0.26</time>
   <time name="diis">    0.78    0.79</time>
   <time name="orth">    0.13    0.13</time>
   <time name="total">    1.25    1.25</time>
   <dipole>
    <v name="dipole">      0.00000000       0.00000000       0.12878207 </v>
    <i name="Tr[quadrupol]"> -12495.25289632 </i>
    <i name="Echarged">      0.00000000 </i>
    <i name="Edipol_quadrupol">      0.00000000 </i>
    <i name="Eion">      0.00000000 </i>
   </dipole>
   <energy>
    <i name="e_fr_energy">   -377.19618247 </i>
    <i name="e_wo_entrp">   -376.17294692 </i>
    <i name="e_0_energy">   -376.68456469 </i>
   </energy>
  </scstep>
  <scstep>
   <time name="diag">    0.26    0.26</time>
   <time name="diis">    0.79    0.79</time>
   <time name="orth">    0.13    0.13</time>
   <time name="total">    1.25    1.26</time>
   <dipole>
    <v name="dipole">      0.00000000       0.00000000       0.13278822 </v>
    <i name="Tr[quadrupol]"> -12495.28515939 </i>
    <i name="Echarged">      0.00000000 </i>
    <i name="Edipol_quadrupol">      0.00000000 </i>
    <i name="Eion">      0.00000000 </i>
   </dipole>
   <energy>
    <i name="e_fr_energy">   -377.19623092 </i>
    <i name="e_wo_entrp">   -376.17308305 </i>
    <i name="e_0_energy">   -376.68465698 </i>
   </energy>
  </scstep>
  <scstep>
   <time name="diag">    0.26    0.26</time>
   <time name="diis">    0.78    0.78</time>
   <time name="orth">    0.13    0.13</time>
   <time name="total">    1.25    1.25</time>
   <dipole>
    <v name="dipole">      0.00000000       0.00000000       0.13412878 </v>
    <i name="Tr[quadrupol]"> -12495.31750491 </i>
    <i name="Echarged">      0.00000000 </i>
    <i name="Edipol_quadrupol">      0.00000000 </i>
    <i name="Eion">      0.00000000 </i>
   </dipole>
   <energy>
    <i name="e_fr_energy">   -377.19639873 </i>
    <i name="e_wo_entrp">   -376.17295112 </i>
    <i name="e_0_energy">   -376.68467493 </i>
   </energy>
  </scstep>
  <scstep>
   <time name="diag">    0.26    0.26</time>
   <time name="diis">    0.79    0.79</time>
   <time name="orth">    0.13    0.13</time>
   <time name="total">    1.25    1.25</time>
   <dipole>
    <v name="dipole">      0.00000000       0.00000000       0.13509986 </v>
    <i name="Tr[quadrupol]"> -12495.32524863 </i>
    <i name="Echarged">      0.00000000 </i>
    <i name="Edipol_quadrupol">      0.00000000 </i>
    <i name="Eion">      0.00000000 </i>
   </dipole>
   <energy>
    <i name="e_fr_energy">   -377.19648492 </i>
    <i name="e_wo_entrp">   -376.17292761 </i>
    <i name="e_0_energy">   -376.68470627 </i>
   </energy>
  </scstep>
  <scstep>
   <time name="diag">    0.26    0.26</time>
   <time name="diis">    0.79    0.79</time>
   <time name="orth">    0.13    0.13</time>
   <time name="total">    1.25    1.25</time>
   <dipole>
    <v name="dipole">      0.00000000       0.00000000       0.13641500 </v>
    <i name="Tr[quadrupol]"> -12495.36087205 </i>
    <i name="Echarged">      0.00000000 </i>
    <i name="Edipol_quadrupol">      0.00000000 </i>
    <i name="Eion">      0.00000000 </i>
   </dipole>
   <energy>
    <i name="e_fr_energy">   -377.19671978 </i>
    <i name="e_wo_entrp">   -376.17290212 </i>
    <i name="e_0_energy">   -376.68481095 </i>
   </energy>
  </scstep>
  <scstep>
   <time name="diag">    0.26    0.26</time>
   <time name="diis">    0.79    0.79</time>
   <time name="orth">    0.13    0.13</time>
   <time name="total">    1.25    1.25</time>
   <dipole>
    <v name="dipole">      0.00000000       0.00000000       0.13777482 </v>
    <i name="Tr[quadrupol]"> -12495.34878320 </i>
    <i name="Echarged">      0.00000000 </i>
    <i name="Edipol_quadrupol">      0.00000000 </i>
    <i name="Eion">      0.00000000 </i>
   </dipole>
   <energy>
    <i name="e_fr_energy">   -377.19677511 </i>
    <i name="e_wo_entrp">   -376.17309391 </i>
    <i name="e_0_energy">   -376.68493451 </i>
   </energy>
  </scstep>
  <scstep>
   <time name="diag">    0.26    0.26</time>
   <time name="diis">    0.80    0.80</time>
   <time name="orth">    0.13    0.13</time>
   <time name="total">    1.26    1.27</time>
   <dipole>
    <v name="dipole">      0.00000000       0.00000000       0.14186722 </v>
    <i name="Tr[quadrupol]"> -12495.37761952 </i>
    <i name="Echarged">      0.00000000 </i>
    <i name="Edipol_quadrupol">      0.00000000 </i>
    <i name="Eion">      0.00000000 </i>
   </dipole>
   <energy>
    <i name="e_fr_energy">   -377.19693969 </i>
    <i name="e_wo_entrp">   -376.17365446 </i>
    <i name="e_0_energy">   -376.68529707 </i>
   </energy>
  </scstep>
  <scstep>
   <time name="diag">    0.26    0.26</time>
   <time name="diis">    0.78    0.78</time>
   <time name="orth">    0.13    0.13</time>
   <time name="total">    1.25    1.25</time>
   <dipole>
    <v name="dipole">      0.00000000       0.00000000       0.14449488 </v>
    <i name="Tr[quadrupol]"> -12495.39846664 </i>
    <i name="Echarged">      0.00000000 </i>
    <i name="Edipol_quadrupol">      0.00000000 </i>
    <i name="Eion">      0.00000000 </i>
   </dipole>
   <energy>
    <i name="e_fr_energy">   -377.19708990 </i>
    <i name="e_wo_entrp">   -376.17387239 </i>
    <i name="e_0_energy">   -376.68548114 </i>
   </energy>
  </scstep>
  <scstep>
   <time name="diag">    0.26    0.26</time>
   <time name="diis">    0.75    0.75</time>
   <time name="orth">    0.13    0.13</time>
   <time name="total">    1.21    1.22</time>
   <dipole>
    <v name="dipole">      0.00000000       0.00000000       0.14679983 </v>
    <i name="Tr[quadrupol]"> -12495.41755620 </i>
    <i name="Echarged">      0.00000000 </i>
    <i name="Edipol_quadrupol">      0.00000000 </i>
    <i name="Eion">      0.00000000 </i>
   </dipole>
   <energy>
    <i name="e_fr_energy">   -377.19722510 </i>
    <i name="e_wo_entrp">   -376.17401525 </i>
    <i name="e_0_energy">   -376.68562017 </i>
   </energy>
  </scstep>
  <scstep>
   <time name="diag">    0.26    0.26</time>
   <time name="diis">    0.71    0.71</time>
   <time name="orth">    0.13    0.13</time>
   <time name="total">    1.18    1.19</time>
   <dipole>
    <v name="dipole">      0.00000000       0.00000000       0.14935088 </v>
    <i name="Tr[quadrupol]"> -12495.41028424 </i>
    <i name="Echarged">      0.00000000 </i>
    <i name="Edipol_quadrupol">      0.00000000 </i>
    <i name="Eion">      0.00000000 </i>
   </dipole>
   <energy>
    <i name="e_fr_energy">   -377.19736906 </i>
    <i name="e_wo_entrp">   -376.17399043 </i>
    <i name="e_0_energy">   -376.68567975 </i>
   </energy>
  </scstep>
  <scstep>
   <time name="diag">    0.26    0.26</time>
   <time name="diis">    0.68    0.69</time>
   <time name="orth">    0.13    0.13</time>
   <time name="total">    1.15    1.16</time>
   <dipole>
    <v name="dipole">      0.00000000       0.00000000       0.15199022 </v>
    <i name="Tr[quadrupol]"> -12495.42762772 </i>
    <i name="Echarged">      0.00000000 </i>
    <i name="Edipol_quadrupol">      0.00000000 </i>
    <i name="Eion">      0.00000000 </i>
   </dipole>
   <energy>
    <i name="e_fr_energy">   -377.19750091 </i>
    <i name="e_wo_entrp">   -376.17410219 </i>
    <i name="e_0_energy">   -376.68580155 </i>
   </energy>
  </scstep>
  <scstep>
   <time name="diag">    0.26    0.26</time>
   <time name="diis">    0.58    0.59</time>
   <time name="orth">    0.13    0.13</time>
   <time name="total">    1.05    1.06</time>
   <dipole>
    <v name="dipole">      0.00000000       0.00000000       0.15434218 </v>
    <i name="Tr[quadrupol]"> -12495.44088511 </i>
    <i name="Echarged">      0.00000000 </i>
    <i name="Edipol_quadrupol">      0.00000000 </i>
    <i name="Eion">      0.00000000 </i>
   </dipole>
   <energy>
    <i name="e_fr_energy">   -377.19759608 </i>
    <i name="e_wo_entrp">   -376.17423149 </i>
    <i name="e_0_energy">   -376.68591379 </i>
   </energy>
  </scstep>
  <scstep>
   <time name="diag">    0.26    0.26</time>
   <time name="diis">    0.50    0.51</time>
   <time name="orth">    0.13    0.13</time>
   <time name="total">    0.97    0.98</time>
   <dipole>
    <v name="dipole">      0.00000000       0.00000000       0.15553023 </v>
    <i name="Tr[quadrupol]"> -12495.44702553 </i>
    <i name="Echarged">      0.00000000 </i>
    <i name="Edipol_quadrupol">      0.00000000 </i>
    <i name="Eion">      0.00000000 </i>
   </dipole>
   <energy>
    <i name="e_fr_energy">   -377.19764096 </i>
    <i name="e_wo_entrp">   -376.17427276 </i>
    <i name="e_0_energy">   -376.68595686 </i>
   </energy>
  </scstep>
  <scstep>
   <time name="diag">    0.26    0.26</time>
   <time name="diis">    0.56    0.56</time>
   <time name="orth">    0.13    0.13</time>
   <time name="total">    1.89    1.89</time>
   <dipole>
    <v name="dipole">      0.00000000       0.00000000       0.15808137 </v>
    <i name="Tr[quadrupol]"> -12495.46060763 </i>
    <i name="Echarged">      0.00000000 </i>
    <i name="Edipol_quadrupol">      0.00000000 </i>
    <i name="Eion">      0.00000000 </i>
   </dipole>
   <energy>
    <i name="e_fr_energy">   -377.19773042 </i>
    <i name="e_wo_entrp">   -376.17435966 </i>
    <i name="e_0_energy">   -376.68604504 </i>
   </energy>
  </scstep>
  <scstep>
   <time name="diag">    0.26    0.26</time>
   <time name="diis">    0.58    0.58</time>
   <time name="orth">    0.13    0.13</time>
   <time name="total">    1.05    1.05</time>
   <dipole>
    <v name="dipole">      0.00000000       0.00000000       0.16051757 </v>
    <i name="Tr[quadrupol]"> -12495.44459983 </i>
    <i name="Echarged">      0.00000000 </i>
    <i name="Edipol_quadrupol">      0.00000000 </i>
    <i name="Eion">      0.00000000 </i>
   </dipole>
   <energy>
    <i name="e_fr_energy">   -377.19780215 </i>
    <i name="e_wo_entrp">   -376.17442193 </i>
    <i name="e_0_energy">   -376.68611204 </i>
   </energy>
  </scstep>
  <scstep>
   <time name="diag">    0.26    0.26</time>
   <time name="diis">    0.49    0.49</time>
   <time name="orth">    0.13    0.13</time>
   <time name="total">    0.95    0.95</time>
   <dipole>
    <v name="dipole">      0.00000000       0.00000000       0.16155420 </v>
    <i name="Tr[quadrupol]"> -12495.44927185 </i>
    <i name="Echarged">      0.00000000 </i>
    <i name="Edipol_quadrupol">      0.00000000 </i>
    <i name="Eion">      0.00000000 </i>
   </dipole>
   <energy>
    <i name="e_fr_energy">   -377.19782768 </i>
    <i name="e_wo_entrp">   -376.17443054 </i>
    <i name="e_0_energy">   -376.68612911 </i>
   </energy>
  </scstep>
  <scstep>
   <time name="diag">    0.26    0.26</time>
   <time name="diis">    0.45    0.45</time>
   <time name="orth">    0.13    0.13</time>
   <time name="total">    0.92    0.92</time>
   <dipole>
    <v name="dipole">      0.00000000       0.00000000       0.16258371 </v>
    <i name="Tr[quadrupol]"> -12495.45349476 </i>
    <i name="Echarged">      0.00000000 </i>
    <i name="Edipol_quadrupol">      0.00000000 </i>
    <i name="Eion">      0.00000000 </i>
   </dipole>
   <energy>
    <i name="e_fr_energy">   -377.19784984 </i>
    <i name="e_wo_entrp">   -376.17444705 </i>
    <i name="e_0_energy">   -376.68614845 </i>
   </energy>
  </scstep>
  <scstep>
   <time name="diag">    0.26    0.26</time>
   <time name="diis">    0.38    0.38</time>
   <time name="orth">    0.13    0.13</time>
   <time name="total">    0.85    0.85</time>
   <dipole>
    <v name="dipole">      0.00000000       0.00000000       0.16317137 </v>
    <i name="Tr[quadrupol]"> -12495.45578465 </i>
    <i name="Echarged">      0.00000000 </i>
    <i name="Edipol_quadrupol">      0.00000000 </i>
    <i name="Eion">      0.00000000 </i>
   </dipole>
   <energy>
    <i name="e_fr_energy">   -377.19786142 </i>
    <i name="e_wo_entrp">   -376.17446137 </i>
    <i name="e_0_energy">   -376.68616139 </i>
   </energy>
  </scstep>
  <scstep>
   <time name="diag">    0.26    0.26</time>
   <time name="diis">    0.42    0.42</time>
   <time name="orth">    0.13    0.13</time>
   <time name="total">    0.88    0.89</time>
   <dipole>
    <v name="dipole">      0.00000000       0.00000000       0.16394003 </v>
    <i name="Tr[quadrupol]"> -12495.13339632 </i>
    <i name="Echarged">      0.00000000 </i>
    <i name="Edipol_quadrupol">      0.00000000 </i>
    <i name="Eion">      0.00000000 </i>
   </dipole>
   <energy>
    <i name="e_fr_energy">   -377.19787808 </i>
    <i name="e_wo_entrp">   -376.17446806 </i>
    <i name="e_0_energy">   -376.68617307 </i>
   </energy>
  </scstep>
  <scstep>
   <time name="diag">    0.26    0.26</time>
   <time name="diis">    0.38    0.38</time>
   <time name="orth">    0.13    0.13</time>
   <time name="total">    0.85    0.86</time>
   <dipole>
    <v name="dipole">      0.00000000       0.00000000       0.16464166 </v>
    <i name="Tr[quadrupol]"> -12494.98750785 </i>
    <i name="Echarged">      0.00000000 </i>
    <i name="Edipol_quadrupol">      0.00000000 </i>
    <i name="Eion">      0.00000000 </i>
   </dipole>
   <energy>
    <i name="e_fr_energy">   -377.19788905 </i>
    <i name="e_wo_entrp">   -376.17448679 </i>
    <i name="e_0_energy">   -376.68618792 </i>
   </energy>
  </scstep>
  <scstep>
   <time name="diag">    0.26    0.26</time>
   <time name="diis">    0.37    0.37</time>
   <time name="orth">    0.13    0.13</time>
   <time name="total">    0.83    0.83</time>
   <dipole>
    <v name="dipole">      0.00000000       0.00000000       0.16490774 </v>
    <i name="Tr[quadrupol]"> -12494.92965696 </i>
    <i name="Echarged">      0.00000000 </i>
    <i name="Edipol_quadrupol">      0.00000000 </i>
    <i name="Eion">      0.00000000 </i>
   </dipole>
   <energy>
    <i name="e_fr_energy">   -377.19789594 </i>
    <i name="e_wo_entrp">   -376.17448840 </i>
    <i name="e_0_energy">   -376.68619217 </i>
   </energy>
  </scstep>
  <scstep>
   <time name="diag">    0.26    0.26</time>
   <time name="diis">    0.35    0.35</time>
   <time name="orth">    0.13    0.13</time>
   <time name="total">    0.82    0.82</time>
   <dipole>
    <v name="dipole">      0.00000000       0.00000000       0.16506185 </v>
    <i name="Tr[quadrupol]"> -12494.90091396 </i>
    <i name="Echarged">      0.00000000 </i>
    <i name="Edipol_quadrupol">      0.00000000 </i>
    <i name="Eion">      0.00000000 </i>
   </dipole>
   <energy>
    <i name="e_fr_energy">   -377.19790039 </i>
    <i name="e_wo_entrp">   -376.17449220 </i>
    <i name="e_0_energy">   -376.68619630 </i>
   </energy>
  </scstep>
  <scstep>
   <time name="diag">    0.26    0.26</time>
   <time name="diis">    0.33    0.33</time>
   <time name="orth">    0.13    0.13</time>
   <time name="total">    0.80    0.80</time>
   <dipole>
    <v name="dipole">      0.00000000       0.00000000       0.16518871 </v>
    <i name="Tr[quadrupol]"> -12494.90151969 </i>
    <i name="Echarged">      0.00000000 </i>
    <i name="Edipol_quadrupol">      0.00000000 </i>
    <i name="Eion">      0.00000000 </i>
   </dipole>
   <energy>
    <i name="e_fr_energy">   -377.19790348 </i>
    <i name="e_wo_entrp">   -376.17449894 </i>
    <i name="e_0_energy">   -376.68620121 </i>
   </energy>
  </scstep>
  <scstep>
   <time name="diag">    0.26    0.26</time>
   <time name="diis">    0.31    0.31</time>
   <time name="orth">    0.13    0.13</time>
   <time name="total">    0.78    0.78</time>
   <dipole>
    <v name="dipole">      0.00000000       0.00000000       0.16532410 </v>
    <i name="Tr[quadrupol]"> -12494.90207574 </i>
    <i name="Echarged">      0.00000000 </i>
    <i name="Edipol_quadrupol">      0.00000000 </i>
    <i name="Eion">      0.00000000 </i>
   </dipole>
   <energy>
    <i name="e_fr_energy">   -377.19790588 </i>
    <i name="e_wo_entrp">   -376.17450410 </i>
    <i name="e_0_energy">   -376.68620499 </i>
   </energy>
  </scstep>
  <scstep>
   <time name="diag">    0.26    0.26</time>
   <time name="diis">    0.30    0.30</time>
   <time name="orth">    0.13    0.13</time>
   <time name="total">    0.73    0.73</time>
   <dipole>
    <v name="dipole">      0.00000000       0.00000000       0.16539757 </v>
    <i name="Tr[quadrupol]"> -12494.93201071 </i>
    <i name="Echarged">      0.00000000 </i>
    <i name="Edipol_quadrupol">      0.00000000 </i>
    <i name="Eion">      0.00000000 </i>
   </dipole>
   <energy>
    <i name="alphaZ">   1457.11182985 </i>
    <i name="ewald"> 248409.00027464 </i>
    <i name="hartreedc">-297703.14894429 </i>
    <i name="XCdc">    251.92171587 </i>
    <i name="pawpsdc">  58070.56414723 </i>
    <i name="pawaedc"> -56437.80701676 </i>
    <i name="eentropy">     -1.02340216 </i>
    <i name="bandstr">  -1951.69350153 </i>
    <i name="atom">  47527.87699037 </i>
    <i name="e_fr_energy">   -377.19790678 </i>
    <i name="e_wo_entrp">   -376.17450462 </i>
    <i name="e_0_energy">   -376.68620570 </i>
   </energy>
  </scstep>
  <structure>
   <crystal>
    <varray name="basis" >
     <v>       9.71779202       0.00000000       0.00000000 </v>
     <v>       0.00000000      11.22113968       0.00000000 </v>
     <v>       0.00000000       0.00000000      25.00000000 </v>
    </varray>
    <i name="volume">   2726.11754094 </i>
    <varray name="rec_basis" >
     <v>       0.10290403       0.00000000       0.00000000 </v>
     <v>       0.00000000       0.08911751       0.00000000 </v>
     <v>       0.00000000       0.00000000       0.04000000 </v>
    </varray>
   </crystal>
   <varray name="positions" >
    <v>       0.00000000       0.00000000       0.00000000 </v>
    <v>       0.33333333       0.00000000       0.09162022 </v>
    <v>       0.16647271       0.99974028       0.17936943 </v>
    <v>       0.25000000       0.12500000       0.00000000 </v>
    <v>       0.08333333       0.12500000       0.09162022 </v>
    <v>       0.41819215       0.12550146       0.18130929 </v>
    <v>       0.99844555       0.99897937       0.27101523 </v>
    <v>       0.24579892       0.11939021       0.26943358 </v>
    <v>       0.00000000       0.25000000       0.00000000 </v>
    <v>       0.33333333       0.25000000       0.09162022 </v>
    <v>       0.16809496       0.25118813       0.18078224 </v>
    <v>       0.25000000       0.37500000       0.00000000 </v>
    <v>       0.08333333       0.37500000       0.09162022 </v>
    <v>       0.41761863       0.37494708       0.18179363 </v>
    <v>       0.99886560       0.24808238       0.27079957 </v>
    <v>       0.24190535       0.37501640       0.27212767 </v>
    <v>       0.00000000       0.50000000       0.00000000 </v>
    <v>       0.33333333       0.50000000       0.09162022 </v>
    <v>       0.16809541       0.49881214       0.18077949 </v>
    <v>       0.25000000       0.62500000       0.00000000 </v>
    <v>       0.08333333       0.62500000       0.09162022 </v>
    <v>       0.41815147       0.62445357       0.18131337 </v>
    <v>       0.99885913       0.50197489       0.27078573 </v>
    <v>       0.24573583       0.63062476       0.26944976 </v>
    <v>       0.00000000       0.75000000       0.00000000 </v>
    <v>       0.33333333       0.75000000       0.09162022 </v>
    <v>       0.16644707       0.75027546       0.17935895 </v>
    <v>       0.25000000       0.87500000       0.00000000 </v>
    <v>       0.08333333       0.87500000       0.09162022 </v>
    <v>       0.41638067       0.87498772       0.17988393 </v>
    <v>       0.99843923       0.75105184       0.27102508 </v>
    <v>       0.24854021       0.87499907       0.27093771 </v>
    <v>       0.50000000       0.00000000       0.00000000 </v>
    <v>       0.83333333       0.00000000       0.09162022 </v>
    <v>       0.66711666       0.99944989       0.18014439 </v>
    <v>       0.75000000       0.12500000       0.00000000 </v>
    <v>       0.58333333       0.12500000       0.09162022 </v>
    <v>       0.91680368       0.12550317       0.17972480 </v>
    <v>       0.50065594       0.99680981       0.27090236 </v>
    <v>       0.75371717       0.12240348       0.27092959 </v>
    <v>       0.50000000       0.25000000       0.00000000 </v>
    <v>       0.83333333       0.25000000       0.09162022 </v>
    <v>       0.66327966       0.24894479       0.18208954 </v>
    <v>       0.75000000       0.37500000       0.00000000 </v>
    <v>       0.58333333       0.37500000       0.09162022 </v>
    <v>       0.91585789       0.37500854       0.17958245 </v>
    <v>       0.50890243       0.24758998       0.27415992 </v>
    <v>       0.75684070       0.37502688       0.27029599 </v>
    <v>       0.50000000       0.50000000       0.00000000 </v>
    <v>       0.83333333       0.50000000       0.09162022 </v>
    <v>       0.66326526       0.50107500       0.18209235 </v>
    <v>       0.75000000       0.62500000       0.00000000 </v>
    <v>       0.58333333       0.62500000       0.09162022 </v>
    <v>       0.91681909       0.62449866       0.17973786 </v>
    <v>       0.50877471       0.50235685       0.27415411 </v>
    <v>       0.75367722       0.62761686       0.27093433 </v>
    <v>       0.50000000       0.75000000       0.00000000 </v>
    <v>       0.83333333       0.75000000       0.09162022 </v>
    <v>       0.66715457       0.75053681       0.18015382 </v>
    <v>       0.75000000       0.87500000       0.00000000 </v>
    <v>       0.58333333       0.87500000       0.09162022 </v>
    <v>       0.91691995       0.87500257       0.17999896 </v>
    <v>       0.50066947       0.75316328       0.27090294 </v>
    <v>       0.75101845       0.87501690       0.27127340 </v>
    <v>       0.41756823       0.29584546       0.33877803 </v>
    <v>       0.41742062       0.45397588       0.33874630 </v>
   </varray>
  </structure>
  <varray name="forces" >
   <v>       0.00751455       0.03392003      -0.03644591 </v>
   <v>       0.04420295       0.09458386      -0.16191574 </v>
   <v>       0.06149526      -0.04227825       0.00262402 </v>
   <v>      -0.08576398      -0.09665300       0.00377384 </v>
   <v>      -0.01402983       0.14166826      -0.16203214 </v>
   <v>       0.02916648       0.07497327      -0.02047307 </v>
   <v>       0.07222569       0.01612028       0.17355702 </v>
   <v>       0.04497036       0.04721437       0.27382390 </v>
   <v>      -0.03726245       0.02984903      -0.18667198 </v>
   <v>       0.06620284       0.08763157       0.02868251 </v>
   <v>       0.05723374      -0.01532516      -0.11586688 </v>
   <v>      -0.22214773       0.00019075       0.07031944 </v>
   <v>       0.02670598      -0.00058403      -0.10862756 </v>
   <v>       0.05811202      -0.00000397       0.06090897 </v>
   <v>       0.06382824       0.03842491       0.18798844 </v>
   <v>      -0.06543690      -0.00097749       0.28267863 </v>
   <v>      -0.03708590      -0.02975694      -0.18649757 </v>
   <v>       0.06709233      -0.08841571       0.02916958 </v>
   <v>       0.05887815       0.01711968      -0.11546923 </v>
   <v>      -0.08588145       0.09684328       0.00301719 </v>
   <v>      -0.01442631      -0.14261842      -0.16237421 </v>
   <v>       0.03147059      -0.07553651      -0.02062309 </v>
   <v>       0.06190773      -0.04069700       0.19255930 </v>
   <v>       0.05065624      -0.04460947       0.27232800 </v>
   <v>       0.00775706      -0.03396767      -0.03641328 </v>
   <v>       0.04480280      -0.09480933      -0.16157699 </v>
   <v>       0.06513498       0.04208745       0.00697573 </v>
   <v>      -0.11649739       0.00006191      -0.25936507 </v>
   <v>       0.00802340       0.00075900      -0.29589001 </v>
   <v>       0.02080459      -0.00103217       0.00435648 </v>
   <v>       0.07143687      -0.01520830       0.17252342 </v>
   <v>       0.22324500      -0.00025398       0.09330630 </v>
   <v>      -0.10758454      -0.03883295      -0.06809905 </v>
   <v>       0.01120342       0.01297653      -0.14529359 </v>
   <v>       0.01564606      -0.02432975      -0.07308161 </v>
   <v>      -0.01625887       0.03809218      -0.04296770 </v>
   <v>       0.00890701       0.06893473       0.03044012 </v>
   <v>      -0.04670183       0.02348284       0.08181511 </v>
   <v>      -0.01428657      -0.07931134       0.26067617 </v>
   <v>       0.10155588      -0.05618305       0.08620808 </v>
   <v>      -0.03495681      -0.03716185      -0.08119702 </v>
   <v>      -0.15041985      -0.01996921      -0.19306442 </v>
   <v>      -0.06213205      -0.06716310      -0.04756659 </v>
   <v>      -0.00986072      -0.00014809       0.00554511 </v>
   <v>       0.10415776       0.00068463       0.16724672 </v>
   <v>      -0.02737732      -0.00016916       0.02330992 </v>
   <v>       0.18858774      -0.00421987       0.20398853 </v>
   <v>       0.12782422       0.00104030       0.07518225 </v>
   <v>      -0.03505834       0.03720849      -0.08123600 </v>
   <v>      -0.15048219       0.02082035      -0.19204340 </v>
   <v>      -0.06321984       0.06715674      -0.04792028 </v>
   <v>      -0.01629304      -0.03823551      -0.04292267 </v>
   <v>       0.00818757      -0.06822564       0.03193843 </v>
   <v>      -0.04971871      -0.02077040       0.07700392 </v>
   <v>       0.19597164       0.00499458       0.20135784 </v>
   <v>       0.10064898       0.05493006       0.08683602 </v>
   <v>      -0.10718764       0.03882283      -0.06784039 </v>
   <v>       0.01138342      -0.01418756      -0.14418401 </v>
   <v>       0.01150254       0.02500965      -0.07679816 </v>
   <v>      -0.11773136      -0.00000138       0.09037130 </v>
   <v>      -0.01506556      -0.00091106      -0.13994049 </v>
   <v>      -0.04436079       0.00119349       0.08963468 </v>
   <v>      -0.01608006       0.07817582       0.26004064 </v>
   <v>      -0.02985630      -0.00213773       0.16594876 </v>
   <v>      -0.16485836       0.05649782      -0.16399521 </v>
   <v>      -0.17042141      -0.05678367      -0.15774303 </v>
  </varray>
  <varray name="stress" >
   <v>     -30.94146525      -0.00334266       3.22974324 </v>
   <v>      -0.00334265     -70.73340759      -0.00377370 </v>
   <v>       3.22974330      -0.00377375       7.37839594 </v>
  </varray>
  <energy>
   <i name="e_fr_energy">   -412.22073855 </i>
   <i name="e_wo_entrp">   -411.70903747 </i>
   <i name="e_0_energy">     -1.02340216 </i>
  </energy>
  <time name="totalsc">   66.03   66.34</time>
 </calculation>
 <calculation>
  <scstep>
   <time name="dav">    1.93    1.93</time>
   <time name="total">    2.00    2.01</time>
   <dipole>
    <v name="dipole">      0.00000000       0.00000000       0.16618894 </v>
    <i name="Tr[quadrupol]"> -12496.28691974 </i>
    <i name="Echarged">      0.00000000 </i>
    <i name="Edipol_quadrupol">      0.00000000 </i>
    <i name="Eion">      0.00000000 </i>
   </dipole>
   <energy>
    <i name="alphaZ">   1470.55517540 </i>
    <i name="ewald"> 248409.61158307 </i>
    <i name="hartreedc">-297703.59462957 </i>
    <i name="XCdc">    251.92845279 </i>
    <i name="pawpsdc">  58070.56428272 </i>
    <i name="pawaedc"> -56437.80716096 </i>
    <i name="eentropy">     -1.02389597 </i>
    <i name="bandstr">  -1965.30425813 </i>
    <i name="atom">  47527.87699037 </i>
    <i name="e_fr_energy">   -377.19346028 </i>
    <i name="e_wo_entrp">   -376.16956430 </i>
    <i name="e_0_energy">   -376.68151229 </i>
   </energy>
  </scstep>
  <scstep>
   <time name="diag">    0.26    0.26</time>
   <time name="diis">    0.81    0.81</time>
   <time name="orth">    0.13    0.13</time>
   <time name="total">    1.27    1.27</time>
   <dipole>
    <v name="dipole">      0.00000000       0.00000000       0.15970105 </v>
    <i name="Tr[quadrupol]"> -12496.07454200 </i>
    <i name="Echarged">      0.00000000 </i>
    <i name="Edipol_quadrupol">      0.00000000 </i>
    <i name="Eion">      0.00000000 </i>
   </dipole>
   <energy>
    <i name="e_fr_energy">   -377.19602356 </i>
    <i name="e_wo_entrp">   -376.17268889 </i>
    <i name="e_0_energy">   -376.68435623 </i>
   </energy>
  </scstep>
  <scstep>
   <time name="diag">    0.27    0.27</time>
   <time name="diis">    0.79    0.79</time>
   <time name="orth">    0.13    0.13</time>
   <time name="total">    1.26    1.26</time>
   <dipole>
    <v name="dipole">      0.00000000       0.00000000       0.17653736 </v>
    <i name="Tr[quadrupol]"> -12496.36410410 </i>
    <i name="Echarged">      0.00000000 </i>
    <i name="Edipol_quadrupol">      0.00000000 </i>
    <i name="Eion">      0.00000000 </i>
   </dipole>
   <energy>
    <i name="e_fr_energy">   -377.19721957 </i>
    <i name="e_wo_entrp">   -376.17536197 </i>
    <i name="e_0_energy">   -376.68629077 </i>
   </energy>
  </scstep>
  <scstep>
   <time name="diag">    0.26    0.26</time>
   <time name="diis">    0.79    0.79</time>
   <time name="orth">    0.13    0.13</time>
   <time name="total">    1.25    1.25</time>
   <dipole>
    <v name="dipole">      0.00000000       0.00000000       0.16108472 </v>
    <i name="Tr[quadrupol]"> -12496.36680308 </i>
    <i name="Echarged">      0.00000000 </i>
    <i name="Edipol_quadrupol">      0.00000000 </i>
    <i name="Eion">      0.00000000 </i>
   </dipole>
   <energy>
    <i name="e_fr_energy">   -377.19531964 </i>
    <i name="e_wo_entrp">   -376.17084762 </i>
    <i name="e_0_energy">   -376.68308363 </i>
   </energy>
  </scstep>
  <scstep>
   <time name="diag">    0.26    0.26</time>
   <time name="diis">    0.81    0.81</time>
   <time name="orth">    0.13    0.13</time>
   <time name="total">    1.27    1.27</time>
   <dipole>
    <v name="dipole">      0.00000000       0.00000000       0.16367956 </v>
[...]
       <r>   -16.7019     0.0416     4.0000 </r>
       <r>   -16.6099     0.0003     4.0000 </r>
       <r>   -16.5179     0.0000     4.0000 </r>
       <r>   -16.4260     0.0000     4.0000 </r>
       <r>   -16.3340     0.0000     4.0000 </r>
       <r>   -16.2420     0.0000     4.0000 </r>
       <r>   -16.1500     0.0000     4.0000 </r>
       <r>   -16.0581     0.0000     4.0000 </r>
       <r>   -15.9661     0.0000     4.0000 </r>
       <r>   -15.8741     0.0000     4.0000 </r>
       <r>   -15.7821     0.0000     4.0000 </r>
       <r>   -15.6901     0.0000     4.0000 </r>
       <r>   -15.5982     0.0000     4.0000 </r>
       <r>   -15.5062     0.0000     4.0000 </r>
       <r>   -15.4142     0.0000     4.0000 </r>
       <r>   -15.3222     0.0000     4.0000 </r>
       <r>   -15.2303     0.0000     4.0000 </r>
       <r>   -15.1383     0.0000     4.0000 </r>
       <r>   -15.0463     0.0000     4.0000 </r>
       <r>   -14.9543     0.0000     4.0000 </r>
       <r>   -14.8623     0.0000     4.0000 </r>
       <r>   -14.7704     0.0000     4.0000 </r>
       <r>   -14.6784     0.0000     4.0000 </r>
       <r>   -14.5864     0.0000     4.0000 </r>
       <r>   -14.4944     0.0000     4.0000 </r>
       <r>   -14.4024     0.0000     4.0000 </r>
       <r>   -14.3105     0.0000     4.0000 </r>
       <r>   -14.2185     0.0000     4.0000 </r>
       <r>   -14.1265     0.0000     4.0000 </r>
       <r>   -14.0345     0.0000     4.0000 </r>
       <r>   -13.9426     0.0000     4.0000 </r>
       <r>   -13.8506     0.0000     4.0000 </r>
       <r>   -13.7586     0.0000     4.0000 </r>
       <r>   -13.6666     0.0000     4.0000 </r>
       <r>   -13.5746     0.0000     4.0000 </r>
       <r>   -13.4827     0.0000     4.0000 </r>
       <r>   -13.3907     0.0000     4.0000 </r>
       <r>   -13.2987     0.0000     4.0000 </r>
       <r>   -13.2067     0.0000     4.0000 </r>
       <r>   -13.1147     0.0000     4.0000 </r>
       <r>   -13.0228     0.0000     4.0000 </r>
       <r>   -12.9308     0.0000     4.0000 </r>
       <r>   -12.8388     0.0000     4.0000 </r>
       <r>   -12.7468     0.0000     4.0000 </r>
       <r>   -12.6549     0.0000     4.0000 </r>
       <r>   -12.5629     0.0000     4.0000 </r>
       <r>   -12.4709     0.0000     4.0000 </r>
       <r>   -12.3789     0.0000     4.0000 </r>
       <r>   -12.2869     0.0000     4.0000 </r>
       <r>   -12.1950     0.0000     4.0000 </r>
       <r>   -12.1030     0.0000     4.0000 </r>
       <r>   -12.0110     0.0000     4.0000 </r>
       <r>   -11.9190     0.0000     4.0000 </r>
       <r>   -11.8271     0.0000     4.0000 </r>
       <r>   -11.7351     0.0000     4.0000 </r>
       <r>   -11.6431     0.0000     4.0000 </r>
       <r>   -11.5511     0.0000     4.0000 </r>
       <r>   -11.4591     0.0000     4.0000 </r>
       <r>   -11.3672     0.0000     4.0000 </r>
       <r>   -11.2752     0.0000     4.0000 </r>
       <r>   -11.1832     0.0000     4.0000 </r>
       <r>   -11.0912     0.0000     4.0000 </r>
       <r>   -10.9992     0.0000     4.0000 </r>
       <r>   -10.9073     0.0000     4.0000 </r>
       <r>   -10.8153     0.0000     4.0000 </r>
       <r>   -10.7233     0.0000     4.0000 </r>
       <r>   -10.6313     0.0000     4.0000 </r>
       <r>   -10.5394     0.0000     4.0000 </r>
       <r>   -10.4474     0.0000     4.0000 </r>
       <r>   -10.3554     0.0000     4.0000 </r>
       <r>   -10.2634     0.0000     4.0000 </r>
       <r>   -10.1714     0.0000     4.0000 </r>
       <r>   -10.0795     0.0000     4.0000 </r>
       <r>    -9.9875     0.0000     4.0000 </r>
       <r>    -9.8955     0.0000     4.0000 </r>
       <r>    -9.8035     0.0000     4.0000 </r>
       <r>    -9.7116     0.0000     4.0000 </r>
       <r>    -9.6196     0.0000     4.0000 </r>
       <r>    -9.5276     0.0000     4.0000 </r>
       <r>    -9.4356     0.0017     4.0002 </r>
       <r>    -9.3436     0.1440     4.0134 </r>
       <r>    -9.2517     2.4767     4.2412 </r>
       <r>    -9.1597     9.3639     5.1025 </r>
       <r>    -9.0677     8.0962     5.8472 </r>
       <r>    -8.9757     1.5929     5.9937 </r>
       <r>    -8.8837     0.0682     5.9999 </r>
       <r>    -8.7918     0.0006     6.0000 </r>
       <r>    -8.6998     0.0000     6.0000 </r>
       <r>    -8.6078     0.0000     6.0000 </r>
       <r>    -8.5158     0.0000     6.0000 </r>
       <r>    -8.4239     0.0000     6.0000 </r>
       <r>    -8.3319     0.0000     6.0000 </r>
       <r>    -8.2399     0.0000     6.0000 </r>
       <r>    -8.1479     0.0000     6.0000 </r>
       <r>    -8.0559     0.0061     6.0006 </r>
       <r>    -7.9640     0.3468     6.0325 </r>
       <r>    -7.8720     4.5412     6.4502 </r>
       <r>    -7.7800    17.6717     8.0756 </r>
       <r>    -7.6880    26.6854    10.5300 </r>
       <r>    -7.5961    14.1254    11.8293 </r>
       <r>    -7.5041     4.8149    12.2721 </r>
       <r>    -7.4121    14.6338    13.6181 </r>
       <r>    -7.3201    18.9433    15.3605 </r>
       <r>    -7.2281     6.4056    15.9497 </r>
       <r>    -7.1362     0.5368    15.9991 </r>
       <r>    -7.0442     0.0107    16.0000 </r>
       <r>    -6.9522     0.0590    16.0055 </r>
       <r>    -6.8602     1.6440    16.1567 </r>
       <r>    -6.7682    11.2033    17.1871 </r>
       <r>    -6.6763    22.7964    19.2839 </r>
       <r>    -6.5843    23.7976    21.4728 </r>
       <r>    -6.4923    43.5512    25.4786 </r>
       <r>    -6.4003    87.1886    33.4980 </r>
       <r>    -6.3084    84.0538    41.2291 </r>
       <r>    -6.2164    61.3200    46.8693 </r>
       <r>    -6.1244    29.2559    49.5602 </r>
       <r>    -6.0324     5.1335    50.0323 </r>
       <r>    -5.9404     6.3685    50.6181 </r>
       <r>    -5.8485    27.6107    53.1577 </r>
       <r>    -5.7565    66.5066    59.2748 </r>
       <r>    -5.6645    73.2168    66.0092 </r>
       <r>    -5.5725    66.4302    72.1193 </r>
       <r>    -5.4806    88.2400    80.2355 </r>
       <r>    -5.3886   111.5051    90.4915 </r>
       <r>    -5.2966   124.0644   101.9028 </r>
       <r>    -5.2046   102.3737   111.3189 </r>
       <r>    -5.1126    68.2741   117.5987 </r>
       <r>    -5.0207    64.3547   123.5179 </r>
       <r>    -4.9287    66.3340   129.6192 </r>
       <r>    -4.8367    45.0706   133.7647 </r>
       <r>    -4.7447    36.9218   137.1607 </r>
       <r>    -4.6527    66.5623   143.2830 </r>
       <r>    -4.5608   112.5343   153.6337 </r>
       <r>    -4.4688   114.5468   164.1695 </r>
       <r>    -4.3768    67.0450   170.3362 </r>
       <r>    -4.2848    61.6978   176.0111 </r>
       <r>    -4.1929    91.5975   184.4361 </r>
       <r>    -4.1009   113.7540   194.8990 </r>
       <r>    -4.0089   119.1836   205.8613 </r>
       <r>    -3.9169   105.5535   215.5699 </r>
       <r>    -3.8249    69.3484   221.9484 </r>
       <r>    -3.7330    45.2770   226.1129 </r>
       <r>    -3.6410    72.2178   232.7554 </r>
       <r>    -3.5490    94.1481   241.4150 </r>
       <r>    -3.4570    90.3795   249.7279 </r>
       <r>    -3.3651   101.5341   259.0669 </r>
       <r>    -3.2731   137.4596   271.7102 </r>
       <r>    -3.1811   167.1638   287.0856 </r>
       <r>    -3.0891   146.2320   300.5358 </r>
       <r>    -2.9971   106.1882   310.3028 </r>
       <r>    -2.9052   102.0929   319.6931 </r>
       <r>    -2.8132   150.2245   333.5105 </r>
       <r>    -2.7212   155.8292   347.8434 </r>
       <r>    -2.6292   140.5017   360.7665 </r>
       <r>    -2.5372   103.9533   370.3280 </r>
       <r>    -2.4453   100.0757   379.5328 </r>
       <r>    -2.3533   128.2091   391.3252 </r>
       <r>    -2.2613   108.0227   401.2610 </r>
       <r>    -2.1693    68.7886   407.5880 </r>
       <r>    -2.0774    56.3470   412.7707 </r>
       <r>    -1.9854    60.9894   418.3804 </r>
       <r>    -1.8934    93.9481   427.0216 </r>
       <r>    -1.8014   135.7456   439.5073 </r>
       <r>    -1.7094   138.4351   452.2403 </r>
       <r>    -1.6175    90.6493   460.5781 </r>
       <r>    -1.5255    83.7153   468.2781 </r>
       <r>    -1.4335    89.9590   476.5523 </r>
       <r>    -1.3415    77.4521   483.6762 </r>
       <r>    -1.2495    84.4764   491.4462 </r>
       <r>    -1.1576   103.4365   500.9602 </r>
       <r>    -1.0656   100.5173   510.2056 </r>
       <r>    -0.9736    86.5201   518.1635 </r>
       <r>    -0.8816    98.8747   527.2579 </r>
       <r>    -0.7897   115.2192   537.8555 </r>
       <r>    -0.6977   101.8774   547.2260 </r>
       <r>    -0.6057    67.0676   553.3948 </r>
       <r>    -0.5137    51.5536   558.1366 </r>
       <r>    -0.4217    56.1015   563.2967 </r>
       <r>    -0.3298    77.8013   570.4528 </r>
       <r>    -0.2378    95.9777   579.2806 </r>
       <r>    -0.1458    97.6562   588.2629 </r>
       <r>    -0.0538    78.3574   595.4701 </r>
       <r>     0.0381    84.9774   603.2861 </r>
       <r>     0.1301   122.8746   614.5879 </r>
       <r>     0.2221   160.4136   629.3425 </r>
       <r>     0.3141   205.4984   648.2439 </r>
       <r>     0.4061   178.2593   664.6399 </r>
       <r>     0.4980   102.3767   674.0563 </r>
       <r>     0.5900    82.8377   681.6756 </r>
       <r>     0.6820    82.2867   689.2442 </r>
       <r>     0.7740    74.4442   696.0914 </r>
       <r>     0.8660    46.2595   700.3463 </r>
       <r>     0.9579    16.0233   701.8201 </r>
       <r>     1.0499     5.9012   702.3629 </r>
       <r>     1.1419    15.4307   703.7822 </r>
       <r>     1.2339    30.0790   706.5488 </r>
       <r>     1.3258    31.9124   709.4840 </r>
       <r>     1.4178    18.9749   711.2293 </r>
       <r>     1.5098    10.8105   712.2236 </r>
       <r>     1.6018    17.4751   713.8310 </r>
       <r>     1.6938    18.5312   715.5354 </r>
       <r>     1.7857     5.3725   716.0296 </r>
       <r>     1.8777     5.9590   716.5777 </r>
       <r>     1.9697    15.6458   718.0168 </r>
       <r>     2.0617    20.7436   719.9247 </r>
       <r>     2.1536    24.6840   722.1951 </r>
       <r>     2.2456    16.3846   723.7021 </r>
       <r>     2.3376     3.5194   724.0258 </r>
       <r>     2.4296     5.5179   724.5334 </r>
       <r>     2.5216    20.7204   726.4392 </r>
       <r>     2.6135    37.8890   729.9242 </r>
       <r>     2.7055    46.1464   734.1686 </r>
       <r>     2.7975    39.1267   737.7674 </r>
       <r>     2.8895    26.0093   740.1597 </r>
       <r>     2.9815    28.5599   742.7866 </r>
       <r>     3.0734    30.6762   745.6082 </r>
       <r>     3.1654    20.1675   747.4631 </r>
       <r>     3.2574    22.9946   749.5781 </r>
       <r>     3.3494    25.8015   751.9513 </r>
       <r>     3.4413    16.5105   753.4699 </r>
       <r>     3.5333     5.2536   753.9531 </r>
       <r>     3.6253     0.8478   754.0311 </r>
       <r>     3.7173     5.8432   754.5686 </r>
       <r>     3.8093    26.4147   756.9981 </r>
       <r>     3.9012    36.9097   760.3930 </r>
       <r>     3.9932    24.8727   762.6808 </r>
       <r>     4.0852    22.3277   764.7344 </r>
       <r>     4.1772    12.2286   765.8592 </r>
       <r>     4.2691     6.9017   766.4940 </r>
       <r>     4.3611    20.2681   768.3582 </r>
       <r>     4.4531    27.2400   770.8637 </r>
       <r>     4.5451    26.7824   773.3271 </r>
       <r>     4.6371    22.6892   775.4140 </r>
       <r>     4.7290    19.5673   777.2138 </r>
       <r>     4.8210     7.6778   777.9200 </r>
       <r>     4.9130     0.9421   778.0067 </r>
       <r>     5.0050     2.1033   778.2001 </r>
       <r>     5.0970    11.4609   779.2543 </r>
       <r>     5.1889    18.6590   780.9705 </r>
       <r>     5.2809    10.5091   781.9371 </r>
       <r>     5.3729     7.5472   782.6313 </r>
       <r>     5.4649    10.4467   783.5922 </r>
       <r>     5.5568     4.0722   783.9667 </r>
       <r>     5.6488     0.3554   783.9994 </r>
       <r>     5.7408     0.0066   784.0000 </r>
       <r>     5.8328     0.0000   784.0000 </r>
       <r>     5.9248     0.0000   784.0000 </r>
       <r>     6.0167     0.0000   784.0000 </r>
       <r>     6.1087     0.0000   784.0000 </r>
       <r>     6.2007     0.0000   784.0000 </r>
       <r>     6.2927     0.0000   784.0000 </r>
       <r>     6.3846     0.0000   784.0000 </r>
       <r>     6.4766     0.0000   784.0000 </r>
       <r>     6.5686     0.0000   784.0000 </r>
       <r>     6.6606     0.0000   784.0000 </r>
      </set>
     </set>
    </array>
   </total>
  </dos>
 </calculation>
 <structure name="finalpos" >
  <crystal>
   <varray name="basis" >
    <v>       9.71779202       0.00000000       0.00000000 </v>
    <v>       0.00000000      11.22113968       0.00000000 </v>
    <v>       0.00000000       0.00000000      25.00000000 </v>
   </varray>
   <i name="volume">   2726.11754094 </i>
   <varray name="rec_basis" >
    <v>       0.10290403       0.00000000       0.00000000 </v>
    <v>       0.00000000       0.08911751       0.00000000 </v>
    <v>       0.00000000       0.00000000       0.04000000 </v>
   </varray>
  </crystal>
  <varray name="positions" >
   <v>       0.00000000       0.00000000       0.00000000 </v>
   <v>       0.33333333       0.00000000       0.09162022 </v>
   <v>       0.16647271       0.99974028       0.17936943 </v>
   <v>       0.25000000       0.12500000       0.00000000 </v>
   <v>       0.08333333       0.12500000       0.09162022 </v>
   <v>       0.41819215       0.12550146       0.18130929 </v>
   <v>       0.99844555       0.99897937       0.27101523 </v>
   <v>       0.24579892       0.11939021       0.26943358 </v>
   <v>       0.00000000       0.25000000       0.00000000 </v>
   <v>       0.33333333       0.25000000       0.09162022 </v>
   <v>       0.16809496       0.25118813       0.18078224 </v>
   <v>       0.25000000       0.37500000       0.00000000 </v>
   <v>       0.08333333       0.37500000       0.09162022 </v>
   <v>       0.41761863       0.37494708       0.18179363 </v>
   <v>       0.99886560       0.24808238       0.27079957 </v>
   <v>       0.24190535       0.37501640       0.27212767 </v>
   <v>       0.00000000       0.50000000       0.00000000 </v>
   <v>       0.33333333       0.50000000       0.09162022 </v>
   <v>       0.16809541       0.49881214       0.18077949 </v>
   <v>       0.25000000       0.62500000       0.00000000 </v>
   <v>       0.08333333       0.62500000       0.09162022 </v>
   <v>       0.41815147       0.62445357       0.18131337 </v>
   <v>       0.99885913       0.50197489       0.27078573 </v>
   <v>       0.24573583       0.63062476       0.26944976 </v>
   <v>       0.00000000       0.75000000       0.00000000 </v>
   <v>       0.33333333       0.75000000       0.09162022 </v>
   <v>       0.16644707       0.75027546       0.17935895 </v>
   <v>       0.25000000       0.87500000       0.00000000 </v>
   <v>       0.08333333       0.87500000       0.09162022 </v>
   <v>       0.41638067       0.87498772       0.17988393 </v>
   <v>       0.99843923       0.75105184       0.27102508 </v>
   <v>       0.24854021       0.87499907       0.27093771 </v>
   <v>       0.50000000       0.00000000       0.00000000 </v>
   <v>       0.83333333       0.00000000       0.09162022 </v>
   <v>       0.66711666       0.99944989       0.18014439 </v>
   <v>       0.75000000       0.12500000       0.00000000 </v>
   <v>       0.58333333       0.12500000       0.09162022 </v>
   <v>       0.91680368       0.12550317       0.17972480 </v>
   <v>       0.50065594       0.99680981       0.27090236 </v>
   <v>       0.75371717       0.12240348       0.27092959 </v>
   <v>       0.50000000       0.25000000       0.00000000 </v>
   <v>       0.83333333       0.25000000       0.09162022 </v>
   <v>       0.66327966       0.24894479       0.18208954 </v>
   <v>       0.75000000       0.37500000       0.00000000 </v>
   <v>       0.58333333       0.37500000       0.09162022 </v>
   <v>       0.91585789       0.37500854       0.17958245 </v>
   <v>       0.50890243       0.24758998       0.27415992 </v>
   <v>       0.75684070       0.37502688       0.27029599 </v>
   <v>       0.50000000       0.50000000       0.00000000 </v>
   <v>       0.83333333       0.50000000       0.09162022 </v>
   <v>       0.66326526       0.50107500       0.18209235 </v>
   <v>       0.75000000       0.62500000       0.00000000 </v>
   <v>       0.58333333       0.62500000       0.09162022 </v>
   <v>       0.91681909       0.62449866       0.17973786 </v>
   <v>       0.50877471       0.50235685       0.27415411 </v>
   <v>       0.75367722       0.62761686       0.27093433 </v>
   <v>       0.50000000       0.75000000       0.00000000 </v>
   <v>       0.83333333       0.75000000       0.09162022 </v>
   <v>       0.66715457       0.75053681       0.18015382 </v>
   <v>       0.75000000       0.87500000       0.00000000 </v>
   <v>       0.58333333       0.87500000       0.09162022 </v>
   <v>       0.91691995       0.87500257       0.17999896 </v>
   <v>       0.50066947       0.75316328       0.27090294 </v>
   <v>       0.75101845       0.87501690       0.27127340 </v>
   <v>       0.41756823       0.29584546       0.33877803 </v>
   <v>       0.41742062       0.45397588       0.33814630 </v>
  </varray>
  <varray name="selective"  type="logical" >
   <v type="logical" >  F  F  F </v>
   <v type="logical" >  F  F  F </v>
   <v type="logical" >  F  F  F </v>
   <v type="logical" >  F  F  F </v>
   <v type="logical" >  F  F  F </v>
   <v type="logical" >  F  F  F </v>
   <v type="logical" >  F  F  F </v>
   <v type="logical" >  F  F  F </v>
   <v type="logical" >  F  F  F </v>
   <v type="logical" >  F  F  F </v>
   <v type="logical" >  F  F  F </v>
   <v type="logical" >  F  F  F </v>
   <v type="logical" >  F  F  F </v>
   <v type="logical" >  F  F  F </v>
   <v type="logical" >  F  F  F </v>
   <v type="logical" >  F  F  F </v>
   <v type="logical" >  F  F  F </v>
   <v type="logical" >  F  F  F </v>
   <v type="logical" >  F  F  F </v>
   <v type="logical" >  F  F  F </v>
   <v type="logical" >  F  F  F </v>
   <v type="logical" >  F  F  F </v>
   <v type="logical" >  F  F  F </v>
   <v type="logical" >  F  F  F </v>
   <v type="logical" >  F  F  F </v>
   <v type="logical" >  F  F  F </v>
   <v type="logical" >  F  F  F </v>
   <v type="logical" >  F  F  F </v>
   <v type="logical" >  F  F  F </v>
   <v type="logical" >  F  F  F </v>
   <v type="logical" >  F  F  F </v>
   <v type="logical" >  F  F  F </v>
   <v type="logical" >  F  F  F </v>
   <v type="logical" >  F  F  F </v>
   <v type="logical" >  F  F  F </v>
   <v type="logical" >  F  F  F </v>
   <v type="logical" >  F  F  F </v>
   <v type="logical" >  F  F  F </v>
   <v type="logical" >  F  F  F </v>
   <v type="logical" >  F  F  F </v>
   <v type="logical" >  F  F  F </v>
   <v type="logical" >  F  F  F </v>
   <v type="logical" >  F  F  F </v>
   <v type="logical" >  F  F  F </v>
   <v type="logical" >  F  F  F </v>
   <v type="logical" >  F  F  F </v>
   <v type="logical" >  F  F  F </v>
   <v type="logical" >  F  F  F </v>
   <v type="logical" >  F  F  F </v>
   <v type="logical" >  F  F  F </v>
   <v type="logical" >  F  F  F </v>
   <v type="logical" >  F  F  F </v>
   <v type="logical" >  F  F  F </v>
   <v type="logical" >  F  F  F </v>
   <v type="logical" >  F  F  F </v>
   <v type="logical" >  F  F  F </v>
   <v type="logical" >  F  F  F </v>
   <v type="logical" >  F  F  F </v>
   <v type="logical" >  F  F  F </v>
   <v type="logical" >  F  F  F </v>
   <v type="logical" >  F  F  F </v>
   <v type="logical" >  F  F  F </v>
   <v type="logical" >  F  F  F </v>
   <v type="logical" >  F  F  F </v>
   <v type="logical" >  T  T  T </v>
   <v type="logical" >  T  T  T </v>
  </varray>
  <nose>
   <v>      -3.00000000       0.00000000       0.00010000       0.00010000 </v>
  </nose>
 </structure>
</modeling>
