LAMMPS (29 Aug 2024)
Running on 5 partitions of processors
    Step     MaxReplicaForce  MaxAtomForce      GradV0         GradV1         GradVc          EBF            EBR            RDT            RD1            PE1            RD2            PE2            RD3            PE3            RD4            PE4            RD5            PE5       
         0   133.37747        6424.6229      133.37747      116.67616      133.37747      0              43.667795      4.5336346      0              -400530.54     0.52858935     -400531.01     0.63593118     -400541.74     0.87870761     -400555.78     1              -400574.2      
        55   5.4180187        10.974985      5.4180187      1.9400651      31.989869      3.7743826      22.402127      4.6940654      0              -400570.15     0.56488222     -400566.61     0.77100739     -400566.38     0.97661185     -400588.52     1              -400588.78     
Climbing replica = 3
    Step     MaxReplicaForce  MaxAtomForce      GradV0         GradV1         GradVc          EBF            EBR            RDT            RD1            PE1            RD2            PE2            RD3            PE3            RD4            PE4            RD5            PE5       
        55   31.989956        443.82784      5.4180466      1.9400401      31.989956      3.7743825      22.402126      4.6940654      0              -400570.15     0.56488222     -400566.61     0.77100739     -400566.38     0.97661185     -400588.52     1              -400588.78     
       100   4.8554341        10.621126      1.1460364      0.79295036     4.8554341      12.584396      30.880175      4.6213441      0              -400570.56     0.59398585     -400568.28     0.75399392     -400557.98     0.98840878     -400588.83     1              -400588.86     
