LAMMPS (29 Aug 2024)
Processor partition = 1
OMP_NUM_THREADS environment is not set. Defaulting to 1 thread. (src/src/comm.cpp:98)
  using 1 OpenMP thread(s) per MPI task
# The LAMMPS input script is designed to perform a Nudged Elastic Band (NEB)
# calculation of the platinum-oxygen (Pt-O₂) dissociation process.
# Zhiwen Bai, 6.2025
# On the basis of the original script by lammps neb example:
# nudged elastic band (NEB) calculation for barrier finding
# To get the stress and strain field of the system.

# Pt O system

#---------------------- Basic settings ----------------------

units		    real
boundary        p p p
atom_style	    charge # q
dimension       3
neighbor        0.6 bin
neigh_modify    delay 5
variable        u uloop 20  # for neb output, it should exceed the number of images.
atom_modify     map array sort 0 0.0 # for neb
#------------------- Read the initial state ------------------

read_data       ./refer/lammps.data
Reading data file ...
  orthogonal box = (0 0 0) to (38.693948 44.679925 60)
  1 by 1 by 1 MPI processor grid
  reading atoms ...
  3074 atoms
  read_data CPU = 0.008 seconds

# ------------------  Potential function ---------------------
pair_style	    reaxff NULL
pair_coeff	    * * CHONiPt.ff O Pt
WARNING: Changed valency_val to valency_boc for X (src/src/REAXFF/reaxff_ffield.cpp:294)
# This file was provided by B.V. Merinov, J.E. Mueller, A.C.T. van Duin, Qi An, and W.A. on 2014, 5
# Goddard III ReaxFF Reactive Force-Field Modeling of the Triple-Phase Boundary in a Solid Oxide Fuel Cell
# J. Phys. Chem. Lett., 2014, 5 (22), pp 4039-4043
# DOI: 10.1021/jz501891y

#------------------------ Output ------------------------------
shell           mkdir results
shell           cd results

compute         peratom all stress/atom NULL
compute         v all voronoi/atom

variable        stress_xx atom -c_peratom[1]/c_v[1]
variable        stress_yy atom -c_peratom[2]/c_v[1]
variable        stress_zz atom -c_peratom[3]/c_v[1]
variable        stress_xy atom -c_peratom[4]/c_v[1]
variable        stress_xz atom -c_peratom[5]/c_v[1]
variable        stress_yz atom -c_peratom[6]/c_v[1]

compute         press_xx1 all reduce sum v_stress_xx
variable        press_xx1 equal c_press_xx1/atoms
compute         press_yy1 all reduce sum v_stress_yy
variable        press_yy1 equal c_press_yy1/atoms
compute         press_zz1 all reduce sum v_stress_zz
variable        press_zz1 equal c_press_zz1/atoms

compute         p all reduce sum c_peratom[1] c_peratom[2] c_peratom[3]
variable        press_xx2 equal -c_p[1]/vol
variable        press_yy2 equal -c_p[2]/vol
variable        press_zz2 equal -c_p[3]/vol

dump            atom_snap all atom 100 dump.neb.$u.text
dump            atom_snap all atom 100 dump.neb.2.text
dump            forece_snap all custom 100 dump.force.$u.xyz id type x y z c_peratom[1] c_peratom[2] c_peratom[3] c_peratom[4] c_peratom[5] c_peratom[6] # 原子力
dump            forece_snap all custom 100 dump.force.2.xyz id type x y z c_peratom[1] c_peratom[2] c_peratom[3] c_peratom[4] c_peratom[5] c_peratom[6] 
dump            stress_snap all custom 100 dump.stress.$u.xyz id type x y z v_stress_xx v_stress_yy v_stress_zz v_stress_xy v_stress_xz v_stress_yz # 原子应力
dump            stress_snap all custom 100 dump.stress.2.xyz id type x y z v_stress_xx v_stress_yy v_stress_zz v_stress_xy v_stress_xz v_stress_yz 

# ------------------ Printing thermodynamic --------------------
thermo_style    custom step temp etotal pxx v_press_xx1 v_press_xx2 pyy v_press_yy1 v_press_yy2 pzz v_press_zz1 v_press_zz2
thermo          100

#---------------------- Neb calculation ------------------------

region          lower block INF INF INF INF INF 5 units box
group           lower region lower
768 atoms in group lower

reset_timestep  0
fix             1 all qeq/reaxff 1 0.0 10.0 1.0e-6 reaxff
fix             2 lower setforce 0.0 0.0 0.0 # fix the boundary

variable        k_spring equal 1.0

timestep        1.0
min_style       quickmin
fix             3 all neb ${k_spring}
fix             3 all neb 1
neb             1E-7 5.0 5000 5000 100 each ../refer/lammps.$u.data
neb             1E-7 5.0 5000 5000 100 each ../refer/lammps.2.data
Switching to 'neigh_modify every 1 delay 0 check yes' setting during minimization
Neighbor list info ...
  update: every = 1 steps, delay = 0 steps, check = yes
  max neighbors/atom: 2000, page size: 100000
  master list distance cutoff = 10.6
  ghost atom cutoff = 10.6
  binsize = 5.3, bins = 8 9 12
  2 neighbor lists, perpetual/occasional/extra = 2 0 0
  (1) pair reaxff, perpetual
      attributes: half, newton off, ghost
      pair build: half/bin/ghost/newtoff
      stencil: full/ghost/bin/3d
      bin: standard
  (2) fix qeq/reaxff, perpetual, copy from (1)
      attributes: half, newton off
      pair build: copy
      stencil: none
      bin: none
Per MPI rank memory allocation (min/avg/max) = 196.5 | 196.5 | 196.5 Mbytes
   Step          Temp          TotEng          Pxx        v_press_xx1    v_press_xx2        Pyy        v_press_yy1    v_press_yy2        Pzz        v_press_zz1    v_press_zz2  
         0   0             -400531.01      165.17295     -1528.4204      165.17295      171.35631     -1527.6969      171.35631      70.809377      319.54507      70.809377    
        55   0.18454604    -400564.92      97.275783     -1641.6981      97.275783      113.98197     -1619.7411      113.98197      78.912635      428.85044      78.912635    
Loop time of 7.99914 on 1 procs for 55 steps with 3074 atoms

99.9% CPU use with 1 MPI tasks x 1 OpenMP threads

Minimization stats:
  Stopping criterion = energy tolerance
  Energy initial, next-to-last, final = 
     -400531.005385815  -400566.579025675  -400566.611250869
  Force two-norm initial, final = 123.85153 4.1822741
  Force max component initial, final = 65.4492 2.0677379
  Final line search alpha, max atom move = 0 0
  Iterations, force evaluations = 55 55

MPI task timing breakdown:
Section |  min time  |  avg time  |  max time  |%varavg| %total
---------------------------------------------------------------
Pair    | 6.4836     | 6.4836     | 6.4836     |   0.0 | 81.05
Neigh   | 0.063922   | 0.063922   | 0.063922   |   0.0 |  0.80
Comm    | 0.00186    | 0.00186    | 0.00186    |   0.0 |  0.02
Output  | 0          | 0          | 0          |   0.0 |  0.00
Modify  | 1.1281     | 1.1281     | 1.1281     |   0.0 | 14.10
Other   |            | 0.3216     |            |       |  4.02

Nlocal:           3074 ave        3074 max        3074 min
Histogram: 1 0 0 0 0 0 0 0 0 0
Nghost:           6918 ave        6918 max        6918 min
Histogram: 1 0 0 0 0 0 0 0 0 0
Neighs:         500536 ave      500536 max      500536 min
Histogram: 1 0 0 0 0 0 0 0 0 0

Total # of neighbors = 500536
Ave neighs/atom = 162.82889
Neighbor list builds = 3
Dangerous builds = 0
Switching to 'neigh_modify every 1 delay 0 check yes' setting during minimization
Per MPI rank memory allocation (min/avg/max) = 202.8 | 202.8 | 202.8 Mbytes
   Step          Temp          TotEng          Pxx        v_press_xx1    v_press_xx2        Pyy        v_press_yy1    v_press_yy2        Pzz        v_press_zz1    v_press_zz2  
        55   0             -400566.61      97.275938     -1642.3166      96.867619      113.98197     -1620.0609      113.76556      78.912921      425.90961      77.302796    
       100   0.64306799    -400562.39      97.913225     -1639.4033      97.913225      113.90787     -1614.5895      113.90787      115.11433      507.06234      115.11433    
Loop time of 6.55914 on 1 procs for 45 steps with 3074 atoms

99.9% CPU use with 1 MPI tasks x 1 OpenMP threads

Minimization stats:
  Stopping criterion = force tolerance
  Energy initial, next-to-last, final = 
     -400566.611249367  -400568.183843807   -400568.28467479
  Force two-norm initial, final = 4.1823968 2.3611169
  Force max component initial, final = 2.0678581 1.2080414
  Final line search alpha, max atom move = 0 0
  Iterations, force evaluations = 45 45

MPI task timing breakdown:
Section |  min time  |  avg time  |  max time  |%varavg| %total
---------------------------------------------------------------
Pair    | 5.3596     | 5.3596     | 5.3596     |   0.0 | 81.71
Neigh   | 0          | 0          | 0          |   0.0 |  0.00
Comm    | 0.0013414  | 0.0013414  | 0.0013414  |   0.0 |  0.02
Output  | 0          | 0          | 0          |   0.0 |  0.00
Modify  | 0.86144    | 0.86144    | 0.86144    |   0.0 | 13.13
Other   |            | 0.3368     |            |       |  5.13

Nlocal:           3074 ave        3074 max        3074 min
Histogram: 1 0 0 0 0 0 0 0 0 0
Nghost:           6918 ave        6918 max        6918 min
Histogram: 1 0 0 0 0 0 0 0 0 0
Neighs:         500535 ave      500535 max      500535 min
Histogram: 1 0 0 0 0 0 0 0 0 0

Total # of neighbors = 500535
Ave neighs/atom = 162.82856
Neighbor list builds = 0
Dangerous builds = 0

shell           cd ..

print           "NEB calculation complete"
NEB calculation complete

CITE-CITE-CITE-CITE-CITE-CITE-CITE-CITE-CITE-CITE-CITE-CITE-CITE

Your simulation uses code contributions which should be cited:

- Type Label Framework: https://doi.org/10.1021/acs.jpcb.3c08419

@Article{Gissinger24,
 author = {Jacob R. Gissinger, Ilia Nikiforov, Yaser Afshar, Brendon Waters, Moon-ki Choi, Daniel S. Karls, Alexander Stukowski, Wonpil Im, Hendrik Heinz, Axel Kohlmeyer, and Ellad B. Tadmor},
 title = {Type Label Framework for Bonded Force Fields in LAMMPS},
 journal = {J. Phys. Chem. B},
 year =    2024,
 volume =  128,
 number =  13,
 pages =   {3282–-3297}
}

- pair reaxff command: doi:10.1016/j.parco.2011.08.005

@Article{Aktulga12,
 author = {H. M. Aktulga and J. C. Fogarty and S. A. Pandit and A. Y. Grama},
 title = {Parallel Reactive Molecular Dynamics: {N}umerical Methods and Algorithmic Techniques},
 journal = {Parallel Computing},
 year =    2012,
 volume =  38,
 number =  {4--5},
 pages =   {245--259}
}

- fix qeq/reaxff command: doi:10.1016/j.parco.2011.08.005

@Article{Aktulga12,
 author = {H. M. Aktulga and J. C. Fogarty and S. A. Pandit and A. Y. Grama},
 title = {Parallel Reactive Molecular Dynamics: {N}umerical Methods and Algorithmic Techniques},
 journal = {Parallel Computing},
 year =    2012,
 volume =  38,
 pages =   {245--259}
}

CITE-CITE-CITE-CITE-CITE-CITE-CITE-CITE-CITE-CITE-CITE-CITE-CITE

Total wall time: 0:00:15
