LAMMPS (29 Aug 2024)
Processor partition = 2
OMP_NUM_THREADS environment is not set. Defaulting to 1 thread. (src/src/comm.cpp:98)
  using 1 OpenMP thread(s) per MPI task
Reading data file ...
  orthogonal box = (0 0 0) to (38.693948 44.679925 60)
  1 by 1 by 1 MPI processor grid
  reading atoms ...
  3074 atoms
  read_data CPU = 0.008 seconds
WARNING: Changed valency_val to valency_boc for X (src/src/REAXFF/reaxff_ffield.cpp:294)
768 atoms in group lower
Switching to 'neigh_modify every 1 delay 0 check yes' setting during minimization
Neighbor list info ...
  update: every = 1 steps, delay = 0 steps, check = yes
  max neighbors/atom: 2000, page size: 100000
  master list distance cutoff = 10.6
  ghost atom cutoff = 10.6
  binsize = 5.3, bins = 8 9 12
  2 neighbor lists, perpetual/occasional/extra = 2 0 0
  (1) pair reaxff, perpetual
      attributes: half, newton off, ghost
      pair build: half/bin/ghost/newtoff
      stencil: full/ghost/bin/3d
      bin: standard
  (2) fix qeq/reaxff, perpetual, copy from (1)
      attributes: half, newton off
      pair build: copy
      stencil: none
      bin: none
Setting up quickmin style minimization ...
  Unit style    : real
  Current step  : 0
Per MPI rank memory allocation (min/avg/max) = 196.5 | 196.5 | 196.5 Mbytes
   Step          Temp          TotEng          Pxx        v_press_xx1    v_press_xx2        Pyy        v_press_yy1    v_press_yy2        Pzz        v_press_zz1    v_press_zz2  
         0   0             -400541.74      179.33686     -1478.5523      179.33686      211.78456     -1479.876       211.78456      97.143347      367.08865      97.143347    
        55   0.10961502    -400565.37      143.14397     -1550.6824      143.14397      159.28436     -1587.2994      159.28436     -3.1204914      303.33251     -3.1204914    
Loop time of 7.99914 on 1 procs for 55 steps with 3074 atoms

100.0% CPU use with 1 MPI tasks x 1 OpenMP threads

Minimization stats:
  Stopping criterion = energy tolerance
  Energy initial, next-to-last, final = 
     -400541.743285753  -400566.367614727  -400566.376700667
  Force two-norm initial, final = 120.83623 2.9648509
  Force max component initial, final = 66.844263 1.7368635
  Final line search alpha, max atom move = 0 0
  Iterations, force evaluations = 55 55

MPI task timing breakdown:
Section |  min time  |  avg time  |  max time  |%varavg| %total
---------------------------------------------------------------
Pair    | 6.392      | 6.392      | 6.392      |   0.0 | 79.91
Neigh   | 0.020316   | 0.020316   | 0.020316   |   0.0 |  0.25
Comm    | 0.001689   | 0.001689   | 0.001689   |   0.0 |  0.02
Output  | 0          | 0          | 0          |   0.0 |  0.00
Modify  | 1.2635     | 1.2635     | 1.2635     |   0.0 | 15.80
Other   |            | 0.3217     |            |       |  4.02

Nlocal:           3074 ave        3074 max        3074 min
Histogram: 1 0 0 0 0 0 0 0 0 0
Nghost:           6918 ave        6918 max        6918 min
Histogram: 1 0 0 0 0 0 0 0 0 0
Neighs:         500644 ave      500644 max      500644 min
Histogram: 1 0 0 0 0 0 0 0 0 0

Total # of neighbors = 500644
Ave neighs/atom = 162.86402
Neighbor list builds = 1
Dangerous builds = 0
Switching to 'neigh_modify every 1 delay 0 check yes' setting during minimization
Setting up quickmin style minimization ...
  Unit style    : real
  Current step  : 55
Per MPI rank memory allocation (min/avg/max) = 202.8 | 202.8 | 202.8 Mbytes
   Step          Temp          TotEng          Pxx        v_press_xx1    v_press_xx2        Pyy        v_press_yy1    v_press_yy2        Pzz        v_press_zz1    v_press_zz2  
        55   0             -400566.38      143.14389     -1550.814       143.05957      159.28417     -1587.4633      159.16236     -3.120804       301.41762     -4.2421051    
       100   2.6990352     -400533.26      160.40528     -1557.6668      160.40528      153.58771     -1599.4047      153.58771      66.036772      420.04266      66.036772    
Loop time of 6.55914 on 1 procs for 45 steps with 3074 atoms

99.8% CPU use with 1 MPI tasks x 1 OpenMP threads

Minimization stats:
  Stopping criterion = force tolerance
  Energy initial, next-to-last, final = 
      -400566.37670238  -400557.920206617    -400557.9803939
  Force two-norm initial, final = 31.989956 4.8554341
  Force max component initial, final = 21.067222 3.2590069
  Final line search alpha, max atom move = 0 0
  Iterations, force evaluations = 45 45

MPI task timing breakdown:
Section |  min time  |  avg time  |  max time  |%varavg| %total
---------------------------------------------------------------
Pair    | 5.3504     | 5.3504     | 5.3504     |   0.0 | 81.57
Neigh   | 0.020075   | 0.020075   | 0.020075   |   0.0 |  0.31
Comm    | 0.0013971  | 0.0013971  | 0.0013971  |   0.0 |  0.02
Output  | 0          | 0          | 0          |   0.0 |  0.00
Modify  | 0.8507     | 0.8507     | 0.8507     |   0.0 | 12.97
Other   |            | 0.3365     |            |       |  5.13

Nlocal:           3074 ave        3074 max        3074 min
Histogram: 1 0 0 0 0 0 0 0 0 0
Nghost:           6918 ave        6918 max        6918 min
Histogram: 1 0 0 0 0 0 0 0 0 0
Neighs:         500545 ave      500545 max      500545 min
Histogram: 1 0 0 0 0 0 0 0 0 0

Total # of neighbors = 500545
Ave neighs/atom = 162.83182
Neighbor list builds = 1
Dangerous builds = 0
NEB calculation complete

CITE-CITE-CITE-CITE-CITE-CITE-CITE-CITE-CITE-CITE-CITE-CITE-CITE

Your simulation uses code contributions which should be cited:
- Type Label Framework: https://doi.org/10.1021/acs.jpcb.3c08419
- pair reaxff command: doi:10.1016/j.parco.2011.08.005
- fix qeq/reaxff command: doi:10.1016/j.parco.2011.08.005
The log file lists these citations in BibTeX format.

CITE-CITE-CITE-CITE-CITE-CITE-CITE-CITE-CITE-CITE-CITE-CITE-CITE

Total wall time: 0:00:15
