LAMMPS (29 Aug 2024)
Processor partition = 1
OMP_NUM_THREADS environment is not set. Defaulting to 1 thread. (src/src/comm.cpp:98)
  using 1 OpenMP thread(s) per MPI task
Reading data file ...
  orthogonal box = (0 0 0) to (38.693948 44.679925 60)
  1 by 1 by 1 MPI processor grid
  reading atoms ...
  3074 atoms
  read_data CPU = 0.008 seconds
WARNING: Changed valency_val to valency_boc for X (src/src/REAXFF/reaxff_ffield.cpp:294)
768 atoms in group lower
Switching to 'neigh_modify every 1 delay 0 check yes' setting during minimization
Neighbor list info ...
  update: every = 1 steps, delay = 0 steps, check = yes
  max neighbors/atom: 2000, page size: 100000
  master list distance cutoff = 10.6
  ghost atom cutoff = 10.6
  binsize = 5.3, bins = 8 9 12
  2 neighbor lists, perpetual/occasional/extra = 2 0 0
  (1) pair reaxff, perpetual
      attributes: half, newton off, ghost
      pair build: half/bin/ghost/newtoff
      stencil: full/ghost/bin/3d
      bin: standard
  (2) fix qeq/reaxff, perpetual, copy from (1)
      attributes: half, newton off
      pair build: copy
      stencil: none
      bin: none
Setting up quickmin style minimization ...
  Unit style    : real
  Current step  : 0
Per MPI rank memory allocation (min/avg/max) = 196.5 | 196.5 | 196.5 Mbytes
   Step          Temp          TotEng          Pxx        v_press_xx1    v_press_xx2        Pyy        v_press_yy1    v_press_yy2        Pzz        v_press_zz1    v_press_zz2  
         0   0             -400531.01      165.17295     -1528.4204      165.17295      171.35631     -1527.6969      171.35631      70.809377      319.54507      70.809377    
        55   0.18454604    -400564.92      97.275783     -1641.6981      97.275783      113.98197     -1619.7411      113.98197      78.912635      428.85044      78.912635    
Loop time of 7.99914 on 1 procs for 55 steps with 3074 atoms

99.9% CPU use with 1 MPI tasks x 1 OpenMP threads

Minimization stats:
  Stopping criterion = energy tolerance
  Energy initial, next-to-last, final = 
     -400531.005385815  -400566.579025675  -400566.611250869
  Force two-norm initial, final = 123.85153 4.1822741
  Force max component initial, final = 65.4492 2.0677379
  Final line search alpha, max atom move = 0 0
  Iterations, force evaluations = 55 55

MPI task timing breakdown:
Section |  min time  |  avg time  |  max time  |%varavg| %total
---------------------------------------------------------------
Pair    | 6.4836     | 6.4836     | 6.4836     |   0.0 | 81.05
Neigh   | 0.063922   | 0.063922   | 0.063922   |   0.0 |  0.80
Comm    | 0.00186    | 0.00186    | 0.00186    |   0.0 |  0.02
Output  | 0          | 0          | 0          |   0.0 |  0.00
Modify  | 1.1281     | 1.1281     | 1.1281     |   0.0 | 14.10
Other   |            | 0.3216     |            |       |  4.02

Nlocal:           3074 ave        3074 max        3074 min
Histogram: 1 0 0 0 0 0 0 0 0 0
Nghost:           6918 ave        6918 max        6918 min
Histogram: 1 0 0 0 0 0 0 0 0 0
Neighs:         500536 ave      500536 max      500536 min
Histogram: 1 0 0 0 0 0 0 0 0 0

Total # of neighbors = 500536
Ave neighs/atom = 162.82889
Neighbor list builds = 3
Dangerous builds = 0
Switching to 'neigh_modify every 1 delay 0 check yes' setting during minimization
Setting up quickmin style minimization ...
  Unit style    : real
  Current step  : 55
Per MPI rank memory allocation (min/avg/max) = 202.8 | 202.8 | 202.8 Mbytes
   Step          Temp          TotEng          Pxx        v_press_xx1    v_press_xx2        Pyy        v_press_yy1    v_press_yy2        Pzz        v_press_zz1    v_press_zz2  
        55   0             -400566.61      97.275938     -1642.3166      96.867619      113.98197     -1620.0609      113.76556      78.912921      425.90961      77.302796    
       100   0.64306799    -400562.39      97.913225     -1639.4033      97.913225      113.90787     -1614.5895      113.90787      115.11433      507.06234      115.11433    
Loop time of 6.55914 on 1 procs for 45 steps with 3074 atoms

99.9% CPU use with 1 MPI tasks x 1 OpenMP threads

Minimization stats:
  Stopping criterion = force tolerance
  Energy initial, next-to-last, final = 
     -400566.611249367  -400568.183843807   -400568.28467479
  Force two-norm initial, final = 4.1823968 2.3611169
  Force max component initial, final = 2.0678581 1.2080414
  Final line search alpha, max atom move = 0 0
  Iterations, force evaluations = 45 45

MPI task timing breakdown:
Section |  min time  |  avg time  |  max time  |%varavg| %total
---------------------------------------------------------------
Pair    | 5.3596     | 5.3596     | 5.3596     |   0.0 | 81.71
Neigh   | 0          | 0          | 0          |   0.0 |  0.00
Comm    | 0.0013414  | 0.0013414  | 0.0013414  |   0.0 |  0.02
Output  | 0          | 0          | 0          |   0.0 |  0.00
Modify  | 0.86144    | 0.86144    | 0.86144    |   0.0 | 13.13
Other   |            | 0.3368     |            |       |  5.13

Nlocal:           3074 ave        3074 max        3074 min
Histogram: 1 0 0 0 0 0 0 0 0 0
Nghost:           6918 ave        6918 max        6918 min
Histogram: 1 0 0 0 0 0 0 0 0 0
Neighs:         500535 ave      500535 max      500535 min
Histogram: 1 0 0 0 0 0 0 0 0 0

Total # of neighbors = 500535
Ave neighs/atom = 162.82856
Neighbor list builds = 0
Dangerous builds = 0
NEB calculation complete

CITE-CITE-CITE-CITE-CITE-CITE-CITE-CITE-CITE-CITE-CITE-CITE-CITE

Your simulation uses code contributions which should be cited:
- Type Label Framework: https://doi.org/10.1021/acs.jpcb.3c08419
- pair reaxff command: doi:10.1016/j.parco.2011.08.005
- fix qeq/reaxff command: doi:10.1016/j.parco.2011.08.005
The log file lists these citations in BibTeX format.

CITE-CITE-CITE-CITE-CITE-CITE-CITE-CITE-CITE-CITE-CITE-CITE-CITE

Total wall time: 0:00:15
