LAMMPS (29 Aug 2024)
Processor partition = 3
OMP_NUM_THREADS environment is not set. Defaulting to 1 thread. (src/src/comm.cpp:98)
  using 1 OpenMP thread(s) per MPI task
Reading data file ...
  orthogonal box = (0 0 0) to (38.693948 44.679925 60)
  1 by 1 by 1 MPI processor grid
  reading atoms ...
  3074 atoms
  read_data CPU = 0.008 seconds
WARNING: Changed valency_val to valency_boc for X (src/src/REAXFF/reaxff_ffield.cpp:294)
768 atoms in group lower
Switching to 'neigh_modify every 1 delay 0 check yes' setting during minimization
Neighbor list info ...
  update: every = 1 steps, delay = 0 steps, check = yes
  max neighbors/atom: 2000, page size: 100000
  master list distance cutoff = 10.6
  ghost atom cutoff = 10.6
  binsize = 5.3, bins = 8 9 12
  2 neighbor lists, perpetual/occasional/extra = 2 0 0
  (1) pair reaxff, perpetual
      attributes: half, newton off, ghost
      pair build: half/bin/ghost/newtoff
      stencil: full/ghost/bin/3d
      bin: standard
  (2) fix qeq/reaxff, perpetual, copy from (1)
      attributes: half, newton off
      pair build: copy
      stencil: none
      bin: none
Setting up quickmin style minimization ...
  Unit style    : real
  Current step  : 0
Per MPI rank memory allocation (min/avg/max) = 196.5 | 196.5 | 196.5 Mbytes
   Step          Temp          TotEng          Pxx        v_press_xx1    v_press_xx2        Pyy        v_press_yy1    v_press_yy2        Pzz        v_press_zz1    v_press_zz2  
         0   0             -400555.78      197.34442     -1437.4558      197.34442      202.3571      -1474.7787      202.3571       106.30979      386.63165      106.30979    
        55   0.036631545   -400588.18      174.44062     -1526.1655      174.44062      199.27173     -1490.7109      199.27173      50.496566      399.41438      50.496566    
Loop time of 7.99914 on 1 procs for 55 steps with 3074 atoms

99.7% CPU use with 1 MPI tasks x 1 OpenMP threads

Minimization stats:
  Stopping criterion = energy tolerance
  Energy initial, next-to-last, final = 
     -400555.778746772   -400588.51211096  -400588.517880481
  Force two-norm initial, final = 125.2968 2.445331
  Force max component initial, final = 68.564033 1.0496856
  Final line search alpha, max atom move = 0 0
  Iterations, force evaluations = 55 55

MPI task timing breakdown:
Section |  min time  |  avg time  |  max time  |%varavg| %total
---------------------------------------------------------------
Pair    | 6.5166     | 6.5166     | 6.5166     |   0.0 | 81.47
Neigh   | 0.020445   | 0.020445   | 0.020445   |   0.0 |  0.26
Comm    | 0.0017968  | 0.0017968  | 0.0017968  |   0.0 |  0.02
Output  | 0          | 0          | 0          |   0.0 |  0.00
Modify  | 1.1386     | 1.1386     | 1.1386     |   0.0 | 14.23
Other   |            | 0.3217     |            |       |  4.02

Nlocal:           3074 ave        3074 max        3074 min
Histogram: 1 0 0 0 0 0 0 0 0 0
Nghost:           6918 ave        6918 max        6918 min
Histogram: 1 0 0 0 0 0 0 0 0 0
Neighs:         500842 ave      500842 max      500842 min
Histogram: 1 0 0 0 0 0 0 0 0 0

Total # of neighbors = 500842
Ave neighs/atom = 162.92843
Neighbor list builds = 1
Dangerous builds = 0
Switching to 'neigh_modify every 1 delay 0 check yes' setting during minimization
Setting up quickmin style minimization ...
  Unit style    : real
  Current step  : 55
Per MPI rank memory allocation (min/avg/max) = 202.8 | 202.8 | 202.8 Mbytes
   Step          Temp          TotEng          Pxx        v_press_xx1    v_press_xx2        Pyy        v_press_yy1    v_press_yy2        Pzz        v_press_zz1    v_press_zz2  
        55   0             -400588.52      174.44002     -1526.2562      174.36786      199.27162     -1490.8443      199.18508      50.495998      398.87673      50.211085    
       100   0.58567484    -400583.47      177.5054      -1517.9547      177.5054       209.5446      -1472.869       209.5446       85.699999      476.09876      85.699999    
Loop time of 6.55914 on 1 procs for 45 steps with 3074 atoms

99.9% CPU use with 1 MPI tasks x 1 OpenMP threads

Minimization stats:
  Stopping criterion = force tolerance
  Energy initial, next-to-last, final = 
     -400588.517885176  -400588.821956745  -400588.831438867
  Force two-norm initial, final = 2.4453414 1.7182552
  Force max component initial, final = 1.0497322 0.97477176
  Final line search alpha, max atom move = 0 0
  Iterations, force evaluations = 45 45

MPI task timing breakdown:
Section |  min time  |  avg time  |  max time  |%varavg| %total
---------------------------------------------------------------
Pair    | 5.3271     | 5.3271     | 5.3271     |   0.0 | 81.22
Neigh   | 0          | 0          | 0          |   0.0 |  0.00
Comm    | 0.001332   | 0.001332   | 0.001332   |   0.0 |  0.02
Output  | 0          | 0          | 0          |   0.0 |  0.00
Modify  | 0.89397    | 0.89397    | 0.89397    |   0.0 | 13.63
Other   |            | 0.3368     |            |       |  5.13

Nlocal:           3074 ave        3074 max        3074 min
Histogram: 1 0 0 0 0 0 0 0 0 0
Nghost:           6918 ave        6918 max        6918 min
Histogram: 1 0 0 0 0 0 0 0 0 0
Neighs:         500706 ave      500706 max      500706 min
Histogram: 1 0 0 0 0 0 0 0 0 0

Total # of neighbors = 500706
Ave neighs/atom = 162.88419
Neighbor list builds = 0
Dangerous builds = 0
NEB calculation complete

CITE-CITE-CITE-CITE-CITE-CITE-CITE-CITE-CITE-CITE-CITE-CITE-CITE

Your simulation uses code contributions which should be cited:
- Type Label Framework: https://doi.org/10.1021/acs.jpcb.3c08419
- pair reaxff command: doi:10.1016/j.parco.2011.08.005
- fix qeq/reaxff command: doi:10.1016/j.parco.2011.08.005
The log file lists these citations in BibTeX format.

CITE-CITE-CITE-CITE-CITE-CITE-CITE-CITE-CITE-CITE-CITE-CITE-CITE

Total wall time: 0:00:15
