Cu-Bulk calculation RELAX               
   1.00000000000000     
     2.796873    0.000000   -0.000000
     0.000000    2.796873    0.000000
     0.000000    0.000000    3.954780
   Pt
     2
Direct
  0.000000  0.000000  0.000000
  0.500000  0.500000  0.500000
 
   24   24   32
  113.94      109.91      99.507      86.398      73.404      61.167      49.087      37.118      26.477      18.661    
  14.074      11.813      11.107      11.813      14.074      18.661      26.477      37.118      49.087      61.167    
  73.404      86.398      99.507      109.91      109.91      106.25      96.776      84.677      72.392      60.459    
  48.430      36.479      25.941      18.285      13.828      11.626      10.939      11.626      13.828      18.285    
  25.941      36.479      48.430      60.459      72.392      84.677      96.776      106.25      99.507      96.776    
  89.562      79.917      69.338      58.143      46.287      34.495      24.351      17.205      13.128      11.090    
  10.458      11.090      13.128      17.205      24.351      34.495      46.287      58.143      69.338      79.917    
  89.562      96.776      86.398      84.677      79.917      72.908      64.144      53.791      42.335      31.101    
  21.826      15.574      12.071      10.279      9.7295      10.279      12.071      15.574      21.826      31.101    
  42.335      53.791      64.144      72.908      79.917      84.677      73.404      72.392      69.338      64.144    
  56.681      47.158      36.547      26.521      18.680      13.639      10.789      9.2987      8.8458      9.2987    
  10.789      13.639      18.680      26.521      36.547      47.158      56.681      64.144      69.338      72.392    
  61.167      60.459      58.143      53.791      47.158      38.662      29.540      21.405      15.414      11.666    
  9.4313      8.2575      7.9009      8.2575      9.4313      11.666      15.414      21.405      29.540      38.662    
  47.158      53.791      58.143      60.459      49.087      48.430      46.287      42.335      36.547      29.540    
  22.500      16.631      12.500      9.8201      8.1383      7.2502      6.9771      7.2502      8.1383      9.8201    
  12.500      16.631      22.500      29.540      36.547      42.335      46.287      48.430      37.118      36.479    
  34.495      31.101      26.521      21.405      16.631      12.849      10.133      8.2225      7.0054      6.3451    
  6.1371      6.3451      7.0054      8.2225      10.133      12.849      16.631      21.405      26.521      31.101    
  34.495      36.479      26.477      25.941      24.351      21.826      18.680      15.414      12.500      10.133    
  8.2825      6.9525      6.0784      5.5842      5.4241      5.5842      6.0784      6.9525      8.2825      10.133    
  12.500      15.414      18.680      21.826      24.351      25.941      18.661      18.285      17.205      15.574    
  13.639      11.666      9.8201      8.2225      6.9525      6.0117      5.3671      4.9892      4.8643      4.9892    
  5.3671      6.0117      6.9525      8.2225      9.8201      11.666      13.639      15.574      17.205      18.285    
  14.074      13.828      13.128      12.071      10.789      9.4313      8.1383      7.0054      6.0784      5.3671    
  4.8659      4.5677      4.4687      4.5677      4.8659      5.3671      6.0784      7.0054      8.1383      9.4313    
  10.789      12.071      13.128      13.828      11.813      11.626      11.090      10.279      9.2987      8.2575    
  7.2502      6.3451      5.5842      4.9892      4.5677      4.3183      4.2360      4.3183      4.5677      4.9892    
  5.5842      6.3451      7.2502      8.2575      9.2987      10.279      11.090      11.626      11.107      10.939    
  10.458      9.7295      8.8458      7.9009      6.9771      6.1371      5.4241      4.8643      4.4687      4.2360    
  4.1596      4.2360      4.4687      4.8643      5.4241      6.1371      6.9771      7.9009      8.8458      9.7295    
  10.458      10.939      11.813      11.626      11.090      10.279      9.2987      8.2575      7.2502      6.3451    
  5.5842      4.9892      4.5677      4.3183      4.2360      4.3183      4.5677      4.9892      5.5842      6.3451    
  7.2502      8.2575      9.2987      10.279      11.090      11.626      14.074      13.828      13.128      12.071    
  10.789      9.4313      8.1383      7.0054      6.0784      5.3671      4.8659      4.5677      4.4687      4.5677    
  4.8659      5.3671      6.0784      7.0054      8.1383      9.4313      10.789      12.071      13.128      13.828    
  18.661      18.285      17.205      15.574      13.639      11.666      9.8201      8.2225      6.9525      6.0117    
  5.3671      4.9892      4.8643      4.9892      5.3671      6.0117      6.9525      8.2225      9.8201      11.666    
  13.639      15.574      17.205      18.285      26.477      25.941      24.351      21.826      18.680      15.414    
  12.500      10.133      8.2825      6.9525      6.0784      5.5842      5.4241      5.5842      6.0784      6.9525    
  8.2825      10.133      12.500      15.414      18.680      21.826      24.351      25.941      37.118      36.479    
  34.495      31.101      26.521      21.405      16.631      12.849      10.133      8.2225      7.0054      6.3451    
  6.1371      6.3451      7.0054      8.2225      10.133      12.849      16.631      21.405      26.521      31.101    
  34.495      36.479      49.087      48.430      46.287      42.335      36.547      29.540      22.500      16.631    
  12.500      9.8201      8.1383      7.2502      6.9771      7.2502      8.1383      9.8201      12.500      16.631    
  22.500      29.540      36.547      42.335      46.287      48.430      61.167      60.459      58.143      53.791    
  47.158      38.662      29.540      21.405      15.414      11.666      9.4313      8.2575      7.9009      8.2575    
  9.4313      11.666      15.414      21.405      29.540      38.662      47.158      53.791      58.143      60.459    
  73.404      72.392      69.338      64.144      56.681      47.158      36.547      26.521      18.680      13.639    
  10.789      9.2987      8.8458      9.2987      10.789      13.639      18.680      26.521      36.547      47.158    
  56.681      64.144      69.338      72.392      86.398      84.677      79.917      72.908      64.144      53.791    
  42.335      31.101      21.826      15.574      12.071      10.279      9.7295      10.279      12.071      15.574    
  21.826      31.101      42.335      53.791      64.144      72.908      79.917      84.677      99.507      96.776    
  89.562      79.917      69.338      58.143      46.287      34.495      24.351      17.205      13.128      11.090    
  10.458      11.090      13.128      17.205      24.351      34.495      46.287      58.143      69.338      79.917    
  89.562      96.776      109.91      106.25      96.776      84.677      72.392      60.459      48.430      36.479    
  25.941      18.285      13.828      11.626      10.939      11.626      13.828      18.285      25.941      36.479    
  48.430      60.459      72.392      84.677      96.776      106.25      109.45      105.71      96.039      83.743    
  71.375      59.522      47.705      36.013      25.697      18.183      13.794      11.619      10.940      11.619    
  13.794      18.183      25.697      36.013      47.705      59.522      71.375      83.743      96.039      105.71    
  105.71      102.32      93.492      82.119      70.395      58.819      47.051      35.387      25.179      17.824    
  13.560      11.440      10.779      11.440      13.560      17.824      25.179      35.387      47.051      58.819    
  70.395      82.119      93.492      102.32      96.039      93.492      86.732      77.596      67.425      56.522    
  44.930      33.450      23.648      16.793      12.891      10.927      10.319      10.927      12.891      16.793    
  23.648      33.450      44.930      56.522      67.425      77.596      86.732      93.492      83.743      82.119    
  77.596      70.862      62.346      52.228      41.051      30.154      21.223      15.238      11.880      10.151    
  9.6213      10.151      11.880      15.238      21.223      30.154      41.051      52.228      62.346      70.862    
  77.596      82.119      71.375      70.395      67.425      62.346      55.035      45.727      35.413      25.734    
  18.213      13.393      10.649      9.2102      8.7731      9.2102      10.649      13.393      18.213      25.734    
  35.413      45.727      55.035      62.346      67.425      70.395      59.522      58.819      56.522      52.228    
  45.727      37.456      28.637      20.823      15.095      11.504      9.3445      8.2093      7.8642      8.2093    
  9.3445      11.504      15.095      20.823      28.637      37.456      45.727      52.228      56.522      58.819    
  47.705      47.051      44.930      41.051      35.413      28.637      21.873      16.260      12.312      9.7270    
  8.1000      7.2390      6.9737      7.2390      8.1000      9.7270      12.312      16.260      21.873      28.637    
  35.413      41.051      44.930      47.051      36.013      35.387      33.450      30.154      25.734      20.823    
  16.260      12.648      10.034      8.1867      7.0073      6.3652      6.1624      6.3652      7.0073      8.1867    
  10.034      12.648      16.260      20.823      25.734      30.154      33.450      35.387      25.697      25.179    
  23.648      21.223      18.213      15.095      12.312      10.034      8.2468      6.9597      6.1107      5.6291    
  5.4727      5.6291      6.1107      6.9597      8.2468      10.034      12.312      15.095      18.213      21.223    
  23.648      25.179      18.183      17.824      16.793      15.238      13.393      11.504      9.7270      8.1867    
  6.9597      6.0478      5.4210      5.0526      4.9306      5.0526      5.4210      6.0478      6.9597      8.1867    
  9.7270      11.504      13.393      15.238      16.793      17.824      13.794      13.560      12.891      11.880    
  10.649      9.3445      8.1000      7.0073      6.1107      5.4210      4.9339      4.6436      4.5472      4.6436    
  4.9339      5.4210      6.1107      7.0073      8.1000      9.3445      10.649      11.880      12.891      13.560    
  11.619      11.440      10.927      10.151      9.2102      8.2093      7.2390      6.3652      5.6291      5.0526    
  4.6436      4.4014      4.3215      4.4014      4.6436      5.0526      5.6291      6.3652      7.2390      8.2093    
  9.2102      10.151      10.927      11.440      10.940      10.779      10.319      9.6213      8.7731      7.8642    
  6.9737      6.1624      5.4727      4.9306      4.5472      4.3215      4.2473      4.3215      4.5472      4.9306    
  5.4727      6.1624      6.9737      7.8642      8.7731      9.6213      10.319      10.779      11.619      11.440    
  10.927      10.151      9.2102      8.2093      7.2390      6.3652      5.6291      5.0526      4.6436      4.4014    
  4.3215      4.4014      4.6436      5.0526      5.6291      6.3652      7.2390      8.2093      9.2102      10.151    
  10.927      11.440      13.794      13.560      12.891      11.880      10.649      9.3445      8.1000      7.0073    
  6.1107      5.4210      4.9339      4.6436      4.5472      4.6436      4.9339      5.4210      6.1107      7.0073    
  8.1000      9.3445      10.649      11.880      12.891      13.560      18.183      17.824      16.793      15.238    
  13.393      11.504      9.7270      8.1867      6.9597      6.0478      5.4210      5.0526      4.9306      5.0526    
  5.4210      6.0478      6.9597      8.1867      9.7270      11.504      13.393      15.238      16.793      17.824    
  25.697      25.179      23.648      21.223      18.213      15.095      12.312      10.034      8.2468      6.9597    
  6.1107      5.6291      5.4727      5.6291      6.1107      6.9597      8.2468      10.034      12.312      15.095    
  18.213      21.223      23.648      25.179      36.013      35.387      33.450      30.154      25.734      20.823    
  16.260      12.648      10.034      8.1867      7.0073      6.3652      6.1624      6.3652      7.0073      8.1867    
  10.034      12.648      16.260      20.823      25.734      30.154      33.450      35.387      47.705      47.051    
  44.930      41.051      35.413      28.637      21.873      16.260      12.312      9.7270      8.1000      7.2390    
  6.9737      7.2390      8.1000      9.7270      12.312      16.260      21.873      28.637      35.413      41.051    
  44.930      47.051      59.522      58.819      56.522      52.228      45.727      37.456      28.637      20.823    
  15.095      11.504      9.3445      8.2093      7.8642      8.2093      9.3445      11.504      15.095      20.823    
  28.637      37.456      45.727      52.228      56.522      58.819      71.375      70.395      67.425      62.346    
  55.035      45.727      35.413      25.734      18.213      13.393      10.649      9.2102      8.7731      9.2102    
  10.649      13.393      18.213      25.734      35.413      45.727      55.035      62.346      67.425      70.395    
  83.743      82.119      77.596      70.862      62.346      52.228      41.051      30.154      21.223      15.238    
  11.880      10.151      9.6213      10.151      11.880      15.238      21.223      30.154      41.051      52.228    
  62.346      70.862      77.596      82.119      96.039      93.492      86.732      77.596      67.425      56.522    
  44.930      33.450      23.648      16.793      12.891      10.927      10.319      10.927      12.891      16.793    
  23.648      33.450      44.930      56.522      67.425      77.596      86.732      93.492      105.71      102.32    
  93.492      82.119      70.395      58.819      47.051      35.387      25.179      17.824      13.560      11.440    
  10.779      11.440      13.560      17.824      25.179      35.387      47.051      58.819      70.395      82.119    
  93.492      102.32      98.308      95.271      87.315      76.916      65.985      55.024      43.873      32.955    
  23.557      16.882      13.030      11.084      10.479      11.084      13.030      16.882      23.557      32.955    
  43.873      55.024      65.985      76.916      87.315      95.271      95.271      92.500      85.196      75.505    
  65.068      54.322      43.228      32.367      23.093      16.571      12.827      10.928      10.339      10.928    
  12.827      16.571      23.093      32.367      43.228      54.322      65.068      75.505      85.196      92.500    
  87.315      85.196      79.481      71.509      62.266      52.060      41.172      30.566      21.728      15.678    
  12.244      10.480      9.9368      10.480      12.244      15.678      21.728      30.566      41.172      52.060    
  62.266      71.509      79.481      85.196      76.916      75.505      71.509      65.384      57.437      47.914    
  37.501      27.555      19.585      14.331      11.355      9.8001      9.3256      9.8001      11.355      14.331    
  19.585      27.555      37.501      47.914      57.437      65.384      71.509      75.505      65.985      65.068    
  62.266      57.437      50.497      41.774      32.294      23.588      16.953      12.730      10.269      8.9728    
  8.5789      8.9728      10.269      12.730      16.953      23.588      32.294      41.774      50.497      57.437    
  62.266      65.068      55.024      54.322      52.060      47.914      41.774      34.138      26.173      19.254    
  14.243      11.070      9.1167      8.0886      7.7749      8.0886      9.1167      11.070      14.243      19.254    
  26.173      34.138      41.774      47.914      52.060      54.322      43.873      43.228      41.172      37.501    
  32.294      26.173      20.179      15.272      11.813      9.4863      8.0122      7.2265      6.9829      7.2265    
  8.0122      9.4863      11.813      15.272      20.179      26.173      32.294      37.501      41.172      43.228    
  32.955      32.367      30.566      27.555      23.588      19.254      15.272      12.118      9.7787      8.1098    
  7.0363      6.4457      6.2578      6.4457      7.0363      8.1098      9.7787      12.118      15.272      19.254    
  23.588      27.555      30.566      32.367      23.557      23.093      21.728      19.585      16.953      14.243    
  11.813      9.7787      8.1715      7.0062      6.2295      5.7843      5.6388      5.7843      6.2295      7.0062    
  8.1715      9.7787      11.813      14.243      16.953      19.585      21.728      23.093      16.882      16.571    
  15.678      14.331      12.730      11.070      9.4863      8.1098      7.0062      6.1785      5.6040      5.2639    
  5.1508      5.2639      5.6040      6.1785      7.0062      8.1098      9.4863      11.070      12.730      14.331    
  15.678      16.571      13.030      12.827      12.244      11.355      10.269      9.1167      8.0122      7.0363    
  6.2295      5.6040      5.1596      4.8936      4.8050      4.8936      5.1596      5.6040      6.2295      7.0363    
  8.0122      9.1167      10.269      11.355      12.244      12.827      11.084      10.928      10.480      9.8001    
  8.9728      8.0886      7.2265      6.4457      5.7843      5.2639      4.8936      4.6739      4.6013      4.6739    
  4.8936      5.2639      5.7843      6.4457      7.2265      8.0886      8.9728      9.8001      10.480      10.928    
  10.479      10.339      9.9368      9.3256      8.5789      7.7749      6.9829      6.2578      5.6388      5.1508    
  4.8050      4.6013      4.5344      4.6013      4.8050      5.1508      5.6388      6.2578      6.9829      7.7749    
  8.5789      9.3256      9.9368      10.339      11.084      10.928      10.480      9.8001      8.9728      8.0886    
  7.2265      6.4457      5.7843      5.2639      4.8936      4.6739      4.6013      4.6739      4.8936      5.2639    
  5.7843      6.4457      7.2265      8.0886      8.9728      9.8001      10.480      10.928      13.030      12.827    
  12.244      11.355      10.269      9.1167      8.0122      7.0363      6.2295      5.6040      5.1596      4.8936    
  4.8050      4.8936      5.1596      5.6040      6.2295      7.0363      8.0122      9.1167      10.269      11.355    
  12.244      12.827      16.882      16.571      15.678      14.331      12.730      11.070      9.4863      8.1098    
  7.0062      6.1785      5.6040      5.2639      5.1508      5.2639      5.6040      6.1785      7.0062      8.1098    
  9.4863      11.070      12.730      14.331      15.678      16.571      23.557      23.093      21.728      19.585    
  16.953      14.243      11.813      9.7787      8.1715      7.0062      6.2295      5.7843      5.6388      5.7843    
  6.2295      7.0062      8.1715      9.7787      11.813      14.243      16.953      19.585      21.728      23.093    
  32.955      32.367      30.566      27.555      23.588      19.254      15.272      12.118      9.7787      8.1098    
  7.0363      6.4457      6.2578      6.4457      7.0363      8.1098      9.7787      12.118      15.272      19.254    
  23.588      27.555      30.566      32.367      43.873      43.228      41.172      37.501      32.294      26.173    
  20.179      15.272      11.813      9.4863      8.0122      7.2265      6.9829      7.2265      8.0122      9.4863    
  11.813      15.272      20.179      26.173      32.294      37.501      41.172      43.228      55.024      54.322    
  52.060      47.914      41.774      34.138      26.173      19.254      14.243      11.070      9.1167      8.0886    
  7.7749      8.0886      9.1167      11.070      14.243      19.254      26.173      34.138      41.774      47.914    
  52.060      54.322      65.985      65.068      62.266      57.437      50.497      41.774      32.294      23.588    
  16.953      12.730      10.269      8.9728      8.5789      8.9728      10.269      12.730      16.953      23.588    
  32.294      41.774      50.497      57.437      62.266      65.068      76.916      75.505      71.509      65.384    
  57.437      47.914      37.501      27.555      19.585      14.331      11.355      9.8001      9.3256      9.8001    
  11.355      14.331      19.585      27.555      37.501      47.914      57.437      65.384      71.509      75.505    
  87.315      85.196      79.481      71.509      62.266      52.060      41.172      30.566      21.728      15.678    
  12.244      10.480      9.9368      10.480      12.244      15.678      21.728      30.566      41.172      52.060    
  62.266      71.509      79.481      85.196      95.271      92.500      85.196      75.505      65.068      54.322    
  43.228      32.367      23.093      16.571      12.827      10.928      10.339      10.928      12.827      16.571    
  23.093      32.367      43.228      54.322      65.068      75.505      85.196      92.500      85.190      82.872    
  76.659      68.148      58.625      48.597      38.333      28.592      20.574      15.100      11.964      10.332    
  9.8306      10.332      11.964      15.100      20.574      28.592      38.333      48.597      58.625      68.148    
  76.659      82.872      82.872      80.733      74.959      66.927      57.746      47.889      37.709      28.067    
  20.190      14.855      11.802      10.209      9.7199      10.209      11.802      14.855      20.190      28.067    
  37.709      47.889      57.746      66.927      74.959      80.733      76.659      74.959      70.256      63.394    
  55.058      45.658      35.771      26.490      19.073      14.155      11.336      9.8552      9.4029      9.8552    
  11.336      14.155      19.073      26.490      35.771      45.658      55.058      63.394      70.256      74.959    
  68.148      66.927      63.394      57.819      50.464      41.723      32.444      23.923      17.346      13.101    
  10.626      9.3183      8.9205      9.3183      10.626      13.101      17.346      23.923      32.444      41.723    
  50.464      57.819      63.394      66.927      58.625      57.746      55.058      50.464      44.000      36.136    
  27.911      20.638      15.256      11.836      9.7590      8.6634      8.3297      8.6634      9.7590      11.836    
  15.256      20.638      27.911      36.136      44.000      50.464      55.058      57.746      48.597      47.889    
  45.658      41.723      36.136      29.470      22.775      17.139      13.117      10.491      8.8365      7.9601    
  7.6905      7.9601      8.8365      10.491      13.117      17.139      22.775      29.470      36.136      41.723    
  45.658      47.889      38.333      37.709      35.771      32.444      27.911      22.775      17.896      13.973    
  11.165      9.2004      7.9473      7.2700      7.0574      7.2700      7.9473      9.2004      11.165      13.973    
  17.896      22.775      27.911      32.444      35.771      37.709      28.592      28.067      26.490      23.923    
  20.638      17.139      13.973      11.436      9.4791      8.0721      7.1543      6.6402      6.4745      6.6402    
  7.1543      8.0721      9.4791      11.436      13.973      17.139      20.638      23.923      26.490      28.067    
  20.574      20.190      19.073      17.346      15.256      13.117      11.165      9.4791      8.1402      7.1575    
  6.4912      6.1031      5.9750      6.1031      6.4912      7.1575      8.1402      9.4791      11.165      13.117    
  15.256      17.346      19.073      20.190      15.100      14.855      14.155      13.101      11.836      10.491    
  9.2004      8.0721      7.1575      6.4616      5.9719      5.6788      5.5809      5.6788      5.9719      6.4616    
  7.1575      8.0721      9.2004      10.491      11.836      13.101      14.155      14.855      11.964      11.802    
  11.336      10.626      9.7590      8.8365      7.9473      7.1543      6.4912      5.9719      5.6000      5.3766    
  5.3021      5.3766      5.6000      5.9719      6.4912      7.1543      7.9473      8.8365      9.7590      10.626    
  11.336      11.802      10.332      10.209      9.8552      9.3183      8.6634      7.9601      7.2700      6.6402    
  6.1031      5.6788      5.3766      5.1975      5.1384      5.1975      5.3766      5.6788      6.1031      6.6402    
  7.2700      7.9601      8.6634      9.3183      9.8552      10.209      9.8306      9.7199      9.4029      8.9205    
  8.3297      7.6905      7.0574      6.4745      5.9750      5.5809      5.3021      5.1384      5.0847      5.1384    
  5.3021      5.5809      5.9750      6.4745      7.0574      7.6905      8.3297      8.9205      9.4029      9.7199    
  10.332      10.209      9.8552      9.3183      8.6634      7.9601      7.2700      6.6402      6.1031      5.6788    
  5.3766      5.1975      5.1384      5.1975      5.3766      5.6788      6.1031      6.6402      7.2700      7.9601    
  8.6634      9.3183      9.8552      10.209      11.964      11.802      11.336      10.626      9.7590      8.8365    
  7.9473      7.1543      6.4912      5.9719      5.6000      5.3766      5.3021      5.3766      5.6000      5.9719    
  6.4912      7.1543      7.9473      8.8365      9.7590      10.626      11.336      11.802      15.100      14.855    
  14.155      13.101      11.836      10.491      9.2004      8.0721      7.1575      6.4616      5.9719      5.6788    
  5.5809      5.6788      5.9719      6.4616      7.1575      8.0721      9.2004      10.491      11.836      13.101    
  14.155      14.855      20.574      20.190      19.073      17.346      15.256      13.117      11.165      9.4791    
  8.1402      7.1575      6.4912      6.1031      5.9750      6.1031      6.4912      7.1575      8.1402      9.4791    
  11.165      13.117      15.256      17.346      19.073      20.190      28.592      28.067      26.490      23.923    
  20.638      17.139      13.973      11.436      9.4791      8.0721      7.1543      6.6402      6.4745      6.6402    
  7.1543      8.0721      9.4791      11.436      13.973      17.139      20.638      23.923      26.490      28.067    
  38.333      37.709      35.771      32.444      27.911      22.775      17.896      13.973      11.165      9.2004    
  7.9473      7.2700      7.0574      7.2700      7.9473      9.2004      11.165      13.973      17.896      22.775    
  27.911      32.444      35.771      37.709      48.597      47.889      45.658      41.723      36.136      29.470    
  22.775      17.139      13.117      10.491      8.8365      7.9601      7.6905      7.9601      8.8365      10.491    
  13.117      17.139      22.775      29.470      36.136      41.723      45.658      47.889      58.625      57.746    
  55.058      50.464      44.000      36.136      27.911      20.638      15.256      11.836      9.7590      8.6634    
  8.3297      8.6634      9.7590      11.836      15.256      20.638      27.911      36.136      44.000      50.464    
  55.058      57.746      68.148      66.927      63.394      57.819      50.464      41.723      32.444      23.923    
  17.346      13.101      10.626      9.3183      8.9205      9.3183      10.626      13.101      17.346      23.923    
  32.444      41.723      50.464      57.819      63.394      66.927      76.659      74.959      70.256      63.394    
  55.058      45.658      35.771      26.490      19.073      14.155      11.336      9.8552      9.4029      9.8552    
  11.336      14.155      19.073      26.490      35.771      45.658      55.058      63.394      70.256      74.959    
  82.872      80.733      74.959      66.927      57.746      47.889      37.709      28.067      20.190      14.855    
  11.802      10.209      9.7199      10.209      11.802      14.855      20.190      28.067      37.709      47.889    
  57.746      66.927      74.959      80.733      72.858      71.028      65.984      58.728      50.194      41.034    
  31.900      23.706      17.366      13.223      10.798      9.5135      9.1222      9.5135      10.798      13.223    
  17.366      23.706      31.900      41.034      50.194      58.728      65.984      71.028      71.028      69.310    
  64.546      57.606      49.323      40.331      31.329      23.275      17.082      13.051      10.683      9.4293    
  9.0473      9.4293      10.683      13.051      17.082      23.275      31.329      40.331      49.323      57.606    
  64.546      69.310      65.984      64.546      60.475      54.330      46.701      38.188      29.607      22.006    
  16.261      12.562      10.357      9.1890      8.8336      9.1890      10.357      12.562      16.261      22.006    
  29.607      38.188      46.701      54.330      60.475      64.546      58.728      57.606      54.330      49.130    
  42.356      34.599      26.788      20.010      15.017      11.821      9.8611      8.8258      8.5101      8.8258    
  9.8611      11.821      15.017      20.010      26.788      34.599      42.356      49.130      54.330      57.606    
  50.194      49.323      46.701      42.356      36.518      29.792      23.140      17.546      13.532      10.911    
  9.2593      8.3844      8.1155      8.3844      9.2593      10.911      13.532      17.546      23.140      29.792    
  36.518      42.356      46.701      49.323      41.034      40.331      38.188      34.599      29.792      24.372    
  19.196      14.996      12.002      9.9363      8.6190      7.9108      7.6897      7.9108      8.6190      9.9363    
  12.002      14.996      19.196      24.372      29.792      34.599      38.188      40.331      31.900      31.329    