Cu-Bulk calculation RELAX               
   1.00000000000000     
     2.805395    0.000000    0.000000
     0.000000    2.805395    0.000000
     0.000000   -0.000000    3.967272
   Pt
     2
Direct
 -0.000000 -0.000000  0.000000
  0.500000  0.500000  0.500000
 
   24   24   32
 0.11834074222E+03 0.11404713225E+03 0.10301703934E+03 0.89190725664E+02 0.75543746728E+02
 0.62669818297E+02 0.49907101022E+02 0.37308800322E+02 0.26270673401E+02 0.18341730680E+02
 0.13783748543E+02 0.11531286424E+02 0.10833681979E+02 0.11531286424E+02 0.13783748543E+02
 0.18341730680E+02 0.26270673401E+02 0.37308800322E+02 0.49907101022E+02 0.62669818297E+02
 0.75543746728E+02 0.89190725664E+02 0.10301703934E+03 0.11404713225E+03 0.11404713225E+03
 0.11016436061E+03 0.10013562525E+03 0.87391589511E+02 0.74488700086E+02 0.61921537177E+02
 0.49205686351E+02 0.36634836184E+02 0.25718999826E+02 0.17965271514E+02 0.13540435319E+02
 0.11345797804E+02 0.10667497123E+02 0.11345797804E+02 0.13540435319E+02 0.17965271514E+02
 0.25718999826E+02 0.36634836184E+02 0.49205686351E+02 0.61921537177E+02 0.74488700086E+02
 0.87391589511E+02 0.10013562525E+03 0.11016436061E+03 0.10301703934E+03 0.10013562525E+03
 0.92540803102E+02 0.82411012391E+02 0.71289196889E+02 0.59463756360E+02 0.46922720875E+02
 0.34550151055E+02 0.24090013271E+02 0.16887536052E+02 0.12846523474E+02 0.10816239508E+02
 0.10193035790E+02 0.10816239508E+02 0.12846523474E+02 0.16887536052E+02 0.24090013271E+02
 0.34550151055E+02 0.46922720875E+02 0.59463756360E+02 0.71289196889E+02 0.82411012391E+02
 0.92540803102E+02 0.10013562525E+03 0.89190725664E+02 0.87391589511E+02 0.82411012391E+02
 0.75054819339E+02 0.65806212211E+02 0.54834194633E+02 0.42733857779E+02 0.31011816935E+02
 0.21521778403E+02 0.15268227514E+02 0.11797057226E+02 0.10016813289E+02 0.94759145202E+01
 0.10016813289E+02 0.11797057226E+02 0.15268227514E+02 0.21521778403E+02 0.31011816935E+02
 0.42733857779E+02 0.54834194633E+02 0.65806212211E+02 0.75054819339E+02 0.82411012391E+02
 0.87391589511E+02 0.75543746728E+02 0.74488700086E+02 0.71289196889E+02 0.65806212211E+02
 0.57887526671E+02 0.47794212842E+02 0.36649684848E+02 0.26289091451E+02 0.18358093871E+02
 0.13357416796E+02 0.10525048438E+02 0.90509451183E+01 0.86060025568E+01 0.90509451183E+01
 0.10525048438E+02 0.13357416796E+02 0.18358093871E+02 0.26289091451E+02 0.36649684848E+02
 0.47794212842E+02 0.57887526671E+02 0.65806212211E+02 0.71289196889E+02 0.74488700086E+02
 0.62669818297E+02 0.61921537177E+02 0.59463756360E+02 0.54834194633E+02 0.47794212842E+02
 0.38849069746E+02 0.29377016477E+02 0.21089389247E+02 0.15111012809E+02 0.11408087806E+02
 0.91849824050E+01 0.80271736110E+01 0.76767088238E+01 0.80271736110E+01 0.91849824050E+01
 0.11408087806E+02 0.15111012809E+02 0.21089389247E+02 0.29377016477E+02 0.38849069746E+02
 0.47794212842E+02 0.54834194633E+02 0.59463756360E+02 0.61921537177E+02 0.49907101022E+02
 0.49205686351E+02 0.46922720875E+02 0.42733857779E+02 0.36649684848E+02 0.29377016477E+02
 0.22192095618E+02 0.16315421936E+02 0.12238101245E+02 0.95762774652E+01 0.79133080451E+01
 0.70381487725E+01 0.67690181347E+01 0.70381487725E+01 0.79133080451E+01 0.95762774652E+01
 0.12238101245E+02 0.16315421936E+02 0.22192095618E+02 0.29377016477E+02 0.36649684848E+02
 0.42733857779E+02 0.46922720875E+02 0.49205686351E+02 0.37308800322E+02 0.36634836184E+02
 0.34550151055E+02 0.31011816935E+02 0.26289091451E+02 0.21089389247E+02 0.16315421936E+02
 0.12582736495E+02 0.98905246257E+01 0.80002926716E+01 0.68014863591E+01 0.61503169140E+01
 0.59446290505E+01 0.61503169140E+01 0.68014863591E+01 0.80002926716E+01 0.98905246257E+01
 0.12582736495E+02 0.16315421936E+02 0.21089389247E+02 0.26289091451E+02 0.31011816935E+02
 0.34550151055E+02 0.36634836184E+02 0.26270673401E+02 0.25718999826E+02 0.24090013271E+02
 0.21521778403E+02 0.18358093871E+02 0.15111012809E+02 0.12238101245E+02 0.98905246257E+01
 0.80607716341E+01 0.67522609491E+01 0.58922811516E+01 0.54046699479E+01 0.52462066095E+01
 0.54046699479E+01 0.58922811516E+01 0.67522609491E+01 0.80607716341E+01 0.98905246257E+01
 0.12238101245E+02 0.15111012809E+02 0.18358093871E+02 0.21521778403E+02 0.24090013271E+02
 0.25718999826E+02 0.18341730680E+02 0.17965271514E+02 0.16887536052E+02 0.15268227514E+02
 0.13357416796E+02 0.11408087806E+02 0.95762774652E+01 0.80002926716E+01 0.67522609491E+01
 0.58284066425E+01 0.51947178542E+01 0.48226215960E+01 0.46994672315E+01 0.48226215960E+01
 0.51947178542E+01 0.58284066425E+01 0.67522609491E+01 0.80002926716E+01 0.95762774652E+01
 0.11408087806E+02 0.13357416796E+02 0.15268227514E+02 0.16887536052E+02 0.17965271514E+02
 0.13783748543E+02 0.13540435319E+02 0.12846523474E+02 0.11797057226E+02 0.10525048438E+02
 0.91849824050E+01 0.79133080451E+01 0.68014863591E+01 0.58922811516E+01 0.51947178542E+01
 0.47034403154E+01 0.44114562105E+01 0.43145566064E+01 0.44114562105E+01 0.47034403154E+01
 0.51947178542E+01 0.58922811516E+01 0.68014863591E+01 0.79133080451E+01 0.91849824050E+01
 0.10525048438E+02 0.11797057226E+02 0.12846523474E+02 0.13540435319E+02 0.11531286424E+02
 0.11345797804E+02 0.10816239508E+02 0.10016813289E+02 0.90509451183E+01 0.80271736110E+01
 0.70381487725E+01 0.61503169140E+01 0.54046699479E+01 0.48226215960E+01 0.44114562105E+01
 0.41689005991E+01 0.40890420866E+01 0.41689005991E+01 0.44114562105E+01 0.48226215960E+01
 0.54046699479E+01 0.61503169140E+01 0.70381487725E+01 0.80271736110E+01 0.90509451183E+01
 0.10016813289E+02 0.10816239508E+02 0.11345797804E+02 0.10833681979E+02 0.10667497123E+02
 0.10193035790E+02 0.94759145202E+01 0.86060025568E+01 0.76767088238E+01 0.67690181347E+01
 0.59446290505E+01 0.52462066095E+01 0.46994672315E+01 0.43145566064E+01 0.40890420866E+01
 0.40151962972E+01 0.40890420866E+01 0.43145566064E+01 0.46994672315E+01 0.52462066095E+01
 0.59446290505E+01 0.67690181347E+01 0.76767088238E+01 0.86060025568E+01 0.94759145202E+01
 0.10193035790E+02 0.10667497123E+02 0.11531286424E+02 0.11345797804E+02 0.10816239508E+02
 0.10016813289E+02 0.90509451183E+01 0.80271736110E+01 0.70381487725E+01 0.61503169140E+01
 0.54046699479E+01 0.48226215960E+01 0.44114562105E+01 0.41689005991E+01 0.40890420866E+01
 0.41689005991E+01 0.44114562105E+01 0.48226215960E+01 0.54046699479E+01 0.61503169140E+01
 0.70381487725E+01 0.80271736110E+01 0.90509451183E+01 0.10016813289E+02 0.10816239508E+02
 0.11345797804E+02 0.13783748543E+02 0.13540435319E+02 0.12846523474E+02 0.11797057226E+02
 0.10525048438E+02 0.91849824050E+01 0.79133080451E+01 0.68014863591E+01 0.58922811516E+01
 0.51947178542E+01 0.47034403154E+01 0.44114562105E+01 0.43145566064E+01 0.44114562105E+01
 0.47034403154E+01 0.51947178542E+01 0.58922811516E+01 0.68014863591E+01 0.79133080451E+01
 0.91849824050E+01 0.10525048438E+02 0.11797057226E+02 0.12846523474E+02 0.13540435319E+02
 0.18341730680E+02 0.17965271514E+02 0.16887536052E+02 0.15268227514E+02 0.13357416796E+02
 0.11408087806E+02 0.95762774652E+01 0.80002926716E+01 0.67522609491E+01 0.58284066425E+01
 0.51947178542E+01 0.48226215960E+01 0.46994672315E+01 0.48226215960E+01 0.51947178542E+01
 0.58284066425E+01 0.67522609491E+01 0.80002926716E+01 0.95762774652E+01 0.11408087806E+02
 0.13357416796E+02 0.15268227514E+02 0.16887536052E+02 0.17965271514E+02 0.26270673401E+02
 0.25718999826E+02 0.24090013271E+02 0.21521778403E+02 0.18358093871E+02 0.15111012809E+02
 0.12238101245E+02 0.98905246257E+01 0.80607716341E+01 0.67522609491E+01 0.58922811516E+01
 0.54046699479E+01 0.52462066095E+01 0.54046699479E+01 0.58922811516E+01 0.67522609491E+01
 0.80607716341E+01 0.98905246257E+01 0.12238101245E+02 0.15111012809E+02 0.18358093871E+02
 0.21521778403E+02 0.24090013271E+02 0.25718999826E+02 0.37308800322E+02 0.36634836184E+02
 0.34550151055E+02 0.31011816935E+02 0.26289091451E+02 0.21089389247E+02 0.16315421936E+02
 0.12582736495E+02 0.98905246257E+01 0.80002926716E+01 0.68014863591E+01 0.61503169140E+01
 0.59446290505E+01 0.61503169140E+01 0.68014863591E+01 0.80002926716E+01 0.98905246257E+01
 0.12582736495E+02 0.16315421936E+02 0.21089389247E+02 0.26289091451E+02 0.31011816935E+02
 0.34550151055E+02 0.36634836184E+02 0.49907101022E+02 0.49205686351E+02 0.46922720875E+02
 0.42733857779E+02 0.36649684848E+02 0.29377016477E+02 0.22192095618E+02 0.16315421936E+02
 0.12238101245E+02 0.95762774652E+01 0.79133080451E+01 0.70381487725E+01 0.67690181347E+01
 0.70381487725E+01 0.79133080451E+01 0.95762774652E+01 0.12238101245E+02 0.16315421936E+02
 0.22192095618E+02 0.29377016477E+02 0.36649684848E+02 0.42733857779E+02 0.46922720875E+02
 0.49205686351E+02 0.62669818297E+02 0.61921537177E+02 0.59463756360E+02 0.54834194633E+02
 0.47794212842E+02 0.38849069746E+02 0.29377016477E+02 0.21089389247E+02 0.15111012809E+02
 0.11408087806E+02 0.91849824050E+01 0.80271736110E+01 0.76767088238E+01 0.80271736110E+01
 0.91849824050E+01 0.11408087806E+02 0.15111012809E+02 0.21089389247E+02 0.29377016477E+02
 0.38849069746E+02 0.47794212842E+02 0.54834194633E+02 0.59463756360E+02 0.61921537177E+02
 0.75543746728E+02 0.74488700086E+02 0.71289196889E+02 0.65806212211E+02 0.57887526671E+02
 0.47794212842E+02 0.36649684848E+02 0.26289091451E+02 0.18358093871E+02 0.13357416796E+02
 0.10525048438E+02 0.90509451183E+01 0.86060025568E+01 0.90509451183E+01 0.10525048438E+02
 0.13357416796E+02 0.18358093871E+02 0.26289091451E+02 0.36649684848E+02 0.47794212842E+02
 0.57887526671E+02 0.65806212211E+02 0.71289196889E+02 0.74488700086E+02 0.89190725664E+02
 0.87391589511E+02 0.82411012391E+02 0.75054819339E+02 0.65806212211E+02 0.54834194633E+02
 0.42733857779E+02 0.31011816935E+02 0.21521778403E+02 0.15268227514E+02 0.11797057226E+02
 0.10016813289E+02 0.94759145202E+01 0.10016813289E+02 0.11797057226E+02 0.15268227514E+02
 0.21521778403E+02 0.31011816935E+02 0.42733857779E+02 0.54834194633E+02 0.65806212211E+02
 0.75054819339E+02 0.82411012391E+02 0.87391589511E+02 0.10301703934E+03 0.10013562525E+03
 0.92540803102E+02 0.82411012391E+02 0.71289196889E+02 0.59463756360E+02 0.46922720875E+02
 0.34550151055E+02 0.24090013271E+02 0.16887536052E+02 0.12846523474E+02 0.10816239508E+02
 0.10193035790E+02 0.10816239508E+02 0.12846523474E+02 0.16887536052E+02 0.24090013271E+02
 0.34550151055E+02 0.46922720875E+02 0.59463756360E+02 0.71289196889E+02 0.82411012391E+02
 0.92540803102E+02 0.10013562525E+03 0.11404713225E+03 0.11016436061E+03 0.10013562525E+03
 0.87391589511E+02 0.74488700086E+02 0.61921537177E+02 0.49205686351E+02 0.36634836184E+02
 0.25718999826E+02 0.17965271514E+02 0.13540435319E+02 0.11345797804E+02 0.10667497123E+02
 0.11345797804E+02 0.13540435319E+02 0.17965271514E+02 0.25718999826E+02 0.36634836184E+02
 0.49205686351E+02 0.61921537177E+02 0.74488700086E+02 0.87391589511E+02 0.10013562525E+03
 0.11016436061E+03 0.11355920437E+03 0.10958870585E+03 0.99349338774E+02 0.86397179544E+02
 0.73411607419E+02 0.60938940666E+02 0.48455811921E+02 0.36161528639E+02 0.25476177059E+02
 0.17865513098E+02 0.13507653487E+02 0.11339473747E+02 0.10668973042E+02 0.11339473747E+02
 0.13507653487E+02 0.17865513098E+02 0.25476177059E+02 0.36161528639E+02 0.48455811921E+02
 0.60938940666E+02 0.73411607419E+02 0.86397179544E+02 0.99349338774E+02 0.10958870585E+03
 0.10958870585E+03 0.10599295403E+03 0.96666443400E+02 0.84699238256E+02 0.72388493196E+02
 0.60193527730E+02 0.47757934879E+02 0.35501816913E+02 0.24944627336E+02 0.17506706961E+02
 0.13275629885E+02 0.11162276311E+02 0.10510218624E+02 0.11162276311E+02 0.13275629885E+02
 0.17506706961E+02 0.24944627336E+02 0.35501816913E+02 0.47757934879E+02 0.60193527730E+02
 0.72388493196E+02 0.84699238256E+02 0.96666443400E+02 0.10599295403E+03 0.99349338774E+02
 0.96666443400E+02 0.89557229973E+02 0.79967547760E+02 0.69272482852E+02 0.57754134966E+02
 0.45499870771E+02 0.33468922945E+02 0.23378088792E+02 0.16479929044E+02 0.12612758637E+02
 0.10655985613E+02 0.10056537212E+02 0.10655985613E+02 0.12612758637E+02 0.16479929044E+02
 0.23378088792E+02 0.33468922945E+02 0.45499870771E+02 0.57754134966E+02 0.69272482852E+02
 0.79967547760E+02 0.89557229973E+02 0.96666443400E+02 0.86397179544E+02 0.84699238256E+02
 0.79967547760E+02 0.72897553344E+02 0.63907089484E+02 0.53187030091E+02 0.41391386658E+02
 0.30038499655E+02 0.20916053012E+02 0.14937595405E+02 0.11607085182E+02 0.98905688166E+01
 0.93696388134E+01 0.98905688166E+01 0.11607085182E+02 0.14937595405E+02 0.20916053012E+02
 0.30038499655E+02 0.41391386658E+02 0.53187030091E+02 0.63907089484E+02 0.72897553344E+02
 0.79967547760E+02 0.84699238256E+02 0.73411607419E+02 0.72388493196E+02 0.69272482852E+02
 0.63907089484E+02 0.56148804694E+02 0.46291483566E+02 0.35473486553E+02 0.25487943621E+02
 0.17893178396E+02 0.13115490850E+02 0.10386667229E+02 0.89640153916E+01 0.85345647591E+01
 0.89640153916E+01 0.10386667229E+02 0.13115490850E+02 0.17893178396E+02 0.25487943621E+02
 0.35473486553E+02 0.46291483566E+02 0.56148804694E+02 0.63907089484E+02 0.69272482852E+02
 0.72388493196E+02 0.60938940666E+02 0.60193527730E+02 0.57754134966E+02 0.53187030091E+02
 0.46291483566E+02 0.37594690476E+02 0.28452327504E+02 0.20505511450E+02 0.14796930594E+02
 0.11247365867E+02 0.90993006497E+01 0.79797723832E+01 0.76404197606E+01 0.79797723832E+01
 0.90993006497E+01 0.11247365867E+02 0.14796930594E+02 0.20505511450E+02 0.28452327504E+02
 0.37594690476E+02 0.46291483566E+02 0.53187030091E+02 0.57754134966E+02 0.60193527730E+02
 0.48455811921E+02 0.47757934879E+02 0.45499870771E+02 0.41391386658E+02 0.35473486553E+02
 0.28452327504E+02 0.21560394892E+02 0.15948871002E+02 0.12052292509E+02 0.94836948530E+01
 0.78754072013E+01 0.70267747472E+01 0.67651698323E+01 0.70267747472E+01 0.78754072013E+01
 0.94836948530E+01 0.12052292509E+02 0.15948871002E+02 0.21560394892E+02 0.28452327504E+02
 0.35473486553E+02 0.41391386658E+02 0.45499870771E+02 0.47757934879E+02 0.36161528639E+02
 0.35501816913E+02 0.33468922945E+02 0.30038499655E+02 0.25487943621E+02 0.20505511450E+02
 0.15948871002E+02 0.12384682373E+02 0.97913031079E+01 0.79645282358E+01 0.68028096792E+01
 0.61694068034E+01 0.59687876607E+01 0.61694068034E+01 0.68028096792E+01 0.79645282358E+01
 0.97913031079E+01 0.12384682373E+02 0.15948871002E+02 0.20505511450E+02 0.25487943621E+02
 0.30038499655E+02 0.33468922945E+02 0.35501816913E+02 0.25476177059E+02 0.24944627336E+02
 0.23378088792E+02 0.20916053012E+02 0.17893178396E+02 0.14796930594E+02 0.12052292509E+02
 0.97913031079E+01 0.80249041823E+01 0.67585968222E+01 0.59232809740E+01 0.54479365288E+01
 0.52931210062E+01 0.54479365288E+01 0.59232809740E+01 0.67585968222E+01 0.80249041823E+01
 0.97913031079E+01 0.12052292509E+02 0.14796930594E+02 0.17893178396E+02 0.20916053012E+02
 0.23378088792E+02 0.24944627336E+02 0.17865513098E+02 0.17506706961E+02 0.16479929044E+02
 0.14937595405E+02 0.13115490850E+02 0.11247365867E+02 0.94836948530E+01 0.79645282358E+01
 0.67585968222E+01 0.58630124536E+01 0.52466831868E+01 0.48838590607E+01 0.47636149489E+01
 0.48838590607E+01 0.52466831868E+01 0.58630124536E+01 0.67585968222E+01 0.79645282358E+01
 0.94836948530E+01 0.11247365867E+02 0.13115490850E+02 0.14937595405E+02 0.16479929044E+02
 0.17506706961E+02 0.13507653487E+02 0.13275629885E+02 0.12612758637E+02 0.11607085182E+02
 0.10386667229E+02 0.90993006497E+01 0.78754072013E+01 0.68028096792E+01 0.59232809740E+01
 0.52466831868E+01 0.47691371362E+01 0.44849100653E+01 0.43905214517E+01 0.44849100653E+01
 0.47691371362E+01 0.52466831868E+01 0.59232809740E+01 0.68028096792E+01 0.78754072013E+01
 0.90993006497E+01 0.10386667229E+02 0.11607085182E+02 0.12612758637E+02 0.13275629885E+02
 0.11339473747E+02 0.11162276311E+02 0.10655985613E+02 0.98905688166E+01 0.89640153916E+01
 0.79797723832E+01 0.70267747472E+01 0.61694068034E+01 0.54479365288E+01 0.48838590607E+01
 0.44849100653E+01 0.42493725043E+01 0.41717933199E+01 0.42493725043E+01 0.44849100653E+01
 0.48838590607E+01 0.54479365288E+01 0.61694068034E+01 0.70267747472E+01 0.79797723832E+01
 0.89640153916E+01 0.98905688166E+01 0.10655985613E+02 0.11162276311E+02 0.10668973042E+02
 0.10510218624E+02 0.10056537212E+02 0.93696388134E+01 0.85345647591E+01 0.76404197606E+01
 0.67651698323E+01 0.59687876607E+01 0.52931210062E+01 0.47636149489E+01 0.43905214517E+01
 0.41717933199E+01 0.41001446915E+01 0.41717933199E+01 0.43905214517E+01 0.47636149489E+01
 0.52931210062E+01 0.59687876607E+01 0.67651698323E+01 0.76404197606E+01 0.85345647591E+01
 0.93696388134E+01 0.10056537212E+02 0.10510218624E+02 0.11339473747E+02 0.11162276311E+02
 0.10655985613E+02 0.98905688166E+01 0.89640153916E+01 0.79797723832E+01 0.70267747472E+01
 0.61694068034E+01 0.54479365288E+01 0.48838590607E+01 0.44849100653E+01 0.42493725043E+01
 0.41717933199E+01 0.42493725043E+01 0.44849100653E+01 0.48838590607E+01 0.54479365288E+01
 0.61694068034E+01 0.70267747472E+01 0.79797723832E+01 0.89640153916E+01 0.98905688166E+01
 0.10655985613E+02 0.11162276311E+02 0.13507653487E+02 0.13275629885E+02 0.12612758637E+02
 0.11607085182E+02 0.10386667229E+02 0.90993006497E+01 0.78754072013E+01 0.68028096792E+01
 0.59232809740E+01 0.52466831868E+01 0.47691371362E+01 0.44849100653E+01 0.43905214517E+01
 0.44849100653E+01 0.47691371362E+01 0.52466831868E+01 0.59232809740E+01 0.68028096792E+01
 0.78754072013E+01 0.90993006497E+01 0.10386667229E+02 0.11607085182E+02 0.12612758637E+02
 0.13275629885E+02 0.17865513098E+02 0.17506706961E+02 0.16479929044E+02 0.14937595405E+02
 0.13115490850E+02 0.11247365867E+02 0.94836948530E+01 0.79645282358E+01 0.67585968222E+01
 0.58630124536E+01 0.52466831868E+01 0.48838590607E+01 0.47636149489E+01 0.48838590607E+01
 0.52466831868E+01 0.58630124536E+01 0.67585968222E+01 0.79645282358E+01 0.94836948530E+01
 0.11247365867E+02 0.13115490850E+02 0.14937595405E+02 0.16479929044E+02 0.17506706961E+02
 0.25476177059E+02 0.24944627336E+02 0.23378088792E+02 0.20916053012E+02 0.17893178396E+02
 0.14796930594E+02 0.12052292509E+02 0.97913031079E+01 0.80249041823E+01 0.67585968222E+01
 0.59232809740E+01 0.54479365288E+01 0.52931210062E+01 0.54479365288E+01 0.59232809740E+01
 0.67585968222E+01 0.80249041823E+01 0.97913031079E+01 0.12052292509E+02 0.14796930594E+02
 0.17893178396E+02 0.20916053012E+02 0.23378088792E+02 0.24944627336E+02 0.36161528639E+02
 0.35501816913E+02 0.33468922945E+02 0.30038499655E+02 0.25487943621E+02 0.20505511450E+02
 0.15948871002E+02 0.12384682373E+02 0.97913031079E+01 0.79645282358E+01 0.68028096792E+01
 0.61694068034E+01 0.59687876607E+01 0.61694068034E+01 0.68028096792E+01 0.79645282358E+01
 0.97913031079E+01 0.12384682373E+02 0.15948871002E+02 0.20505511450E+02 0.25487943621E+02
 0.30038499655E+02 0.33468922945E+02 0.35501816913E+02 0.48455811921E+02 0.47757934879E+02
 0.45499870771E+02 0.41391386658E+02 0.35473486553E+02 0.28452327504E+02 0.21560394892E+02
 0.15948871002E+02 0.12052292509E+02 0.94836948530E+01 0.78754072013E+01 0.70267747472E+01
 0.67651698323E+01 0.70267747472E+01 0.78754072013E+01 0.94836948530E+01 0.12052292509E+02
 0.15948871002E+02 0.21560394892E+02 0.28452327504E+02 0.35473486553E+02 0.41391386658E+02
 0.45499870771E+02 0.47757934879E+02 0.60938940666E+02 0.60193527730E+02 0.57754134966E+02
 0.53187030091E+02 0.46291483566E+02 0.37594690476E+02 0.28452327504E+02 0.20505511450E+02
 0.14796930594E+02 0.11247365867E+02 0.90993006497E+01 0.79797723832E+01 0.76404197606E+01
 0.79797723832E+01 0.90993006497E+01 0.11247365867E+02 0.14796930594E+02 0.20505511450E+02
 0.28452327504E+02 0.37594690476E+02 0.46291483566E+02 0.53187030091E+02 0.57754134966E+02
 0.60193527730E+02 0.73411607419E+02 0.72388493196E+02 0.69272482852E+02 0.63907089484E+02
 0.56148804694E+02 0.46291483566E+02 0.35473486553E+02 0.25487943621E+02 0.17893178396E+02
 0.13115490850E+02 0.10386667229E+02 0.89640153916E+01 0.85345647591E+01 0.89640153916E+01
 0.10386667229E+02 0.13115490850E+02 0.17893178396E+02 0.25487943621E+02 0.35473486553E+02
 0.46291483566E+02 0.56148804694E+02 0.63907089484E+02 0.69272482852E+02 0.72388493196E+02
 0.86397179544E+02 0.84699238256E+02 0.79967547760E+02 0.72897553344E+02 0.63907089484E+02
 0.53187030091E+02 0.41391386658E+02 0.30038499655E+02 0.20916053012E+02 0.14937595405E+02
 0.11607085182E+02 0.98905688166E+01 0.93696388134E+01 0.98905688166E+01 0.11607085182E+02
 0.14937595405E+02 0.20916053012E+02 0.30038499655E+02 0.41391386658E+02 0.53187030091E+02
 0.63907089484E+02 0.72897553344E+02 0.79967547760E+02 0.84699238256E+02 0.99349338774E+02
 0.96666443400E+02 0.89557229973E+02 0.79967547760E+02 0.69272482852E+02 0.57754134966E+02
 0.45499870771E+02 0.33468922945E+02 0.23378088792E+02 0.16479929044E+02 0.12612758637E+02
 0.10655985613E+02 0.10056537212E+02 0.10655985613E+02 0.12612758637E+02 0.16479929044E+02
 0.23378088792E+02 0.33468922945E+02 0.45499870771E+02 0.57754134966E+02 0.69272482852E+02
 0.79967547760E+02 0.89557229973E+02 0.96666443400E+02 0.10958870585E+03 0.10599295403E+03
 0.96666443400E+02 0.84699238256E+02 0.72388493196E+02 0.60193527730E+02 0.47757934879E+02
 0.35501816913E+02 0.24944627336E+02 0.17506706961E+02 0.13275629885E+02 0.11162276311E+02
 0.10510218624E+02 0.11162276311E+02 0.13275629885E+02 0.17506706961E+02 0.24944627336E+02
 0.35501816913E+02 0.47757934879E+02 0.60193527730E+02 0.72388493196E+02 0.84699238256E+02
 0.96666443400E+02 0.10599295403E+03 0.10175848409E+03 0.98546939068E+02 0.90155930084E+02
 0.79225698407E+02 0.67749184570E+02 0.56203049035E+02 0.44435238858E+02 0.32993034947E+02
 0.23304293000E+02 0.16574489036E+02 0.12752270387E+02 0.10811972575E+02 0.10215568067E+02
 0.10811972575E+02 0.12752270387E+02 0.16574489036E+02 0.23304293000E+02 0.32993034947E+02
 0.44435238858E+02 0.56203049035E+02 0.67749184570E+02 0.79225698407E+02 0.90155930084E+02
 0.98546939068E+02 0.98546939068E+02 0.95622466239E+02 0.87929845625E+02 0.77750737035E+02
 0.66787068299E+02 0.55457549357E+02 0.43748325310E+02 0.32375741927E+02 0.22829747183E+02
 0.16263988027E+02 0.12550185949E+02 0.10657510153E+02 0.10077173765E+02 0.10657510153E+02
 0.12550185949E+02 0.16263988027E+02 0.22829747183E+02 0.32375741927E+02 0.43748325310E+02
 0.55457549357E+02 0.66787068299E+02 0.77750737035E+02 0.87929845625E+02 0.95622466239E+02
 0.90155930084E+02 0.87929845625E+02 0.81931450088E+02 0.73564686694E+02 0.63834929025E+02
 0.53051312748E+02 0.41564192694E+02 0.30494595751E+02 0.21439288107E+02 0.15376470380E+02
 0.11969935953E+02 0.10215463729E+02 0.96808907031E+01 0.10215463729E+02 0.11969935953E+02
 0.15376470380E+02 0.21439288107E+02 0.30494595751E+02 0.41564192694E+02 0.53051312748E+02
 0.63834929025E+02 0.73564686694E+02 0.81931450088E+02 0.87929845625E+02 0.79225698407E+02
 0.77750737035E+02 0.73564686694E+02 0.67122475190E+02 0.58722560015E+02 0.48643578162E+02
 0.37689292381E+02 0.27374474223E+02 0.19274302761E+02 0.14043809899E+02 0.11085882350E+02
 0.95451301016E+01 0.90787067264E+01 0.95451301016E+01 0.11085882350E+02 0.14043809899E+02
 0.19274302761E+02 0.27374474223E+02 0.37689292381E+02 0.48643578162E+02 0.58722560015E+02
 0.67122475190E+02 0.73564686694E+02 0.77750737035E+02 0.67749184570E+02 0.66787068299E+02
 0.63834929025E+02 0.58722560015E+02 0.51362296841E+02 0.42148815143E+02 0.32247418646E+02
 0.23310739483E+02 0.16641218871E+02 0.12461819676E+02 0.10011191425E+02 0.87302459208E+01
 0.83431259710E+01 0.87302459208E+01 0.10011191425E+02 0.12461819676E+02 0.16641218871E+02
 0.23310739483E+02 0.32247418646E+02 0.42148815143E+02 0.51362296841E+02 0.58722560015E+02
 0.63834929025E+02 0.66787068299E+02 0.56203049035E+02 0.55457549357E+02 0.53051312748E+02
 0.48643578162E+02 0.42148815143E+02 0.34152879620E+02 0.25936189721E+02 0.18933163256E+02
 0.13957259457E+02 0.10813197586E+02 0.88741114007E+01 0.78601926200E+01 0.75513550245E+01
 0.78601926200E+01 0.88741114007E+01 0.10813197586E+02 0.13957259457E+02 0.18933163256E+02
 0.25936189721E+02 0.34152879620E+02 0.42148815143E+02 0.48643578162E+02 0.53051312748E+02
 0.55457549357E+02 0.44435238858E+02 0.43748325310E+02 0.41564192694E+02 0.37689292381E+02
 0.32247418646E+02 0.25936189721E+02 0.19858877268E+02 0.14971833850E+02 0.11557535616E+02
 0.92437421069E+01 0.77878627122E+01 0.70129871247E+01 0.67723133662E+01 0.70129871247E+01
 0.77878627122E+01 0.92437421069E+01 0.11557535616E+02 0.14971833850E+02 0.19858877268E+02
 0.25936189721E+02 0.32247418646E+02 0.37689292381E+02 0.41564192694E+02 0.43748325310E+02
 0.32993034947E+02 0.32375741927E+02 0.30494595751E+02 0.27374474223E+02 0.23310739483E+02
 0.18933163256E+02 0.14971833850E+02 0.11860074537E+02 0.95353670271E+01 0.78869626844E+01
 0.68295595652E+01 0.62464379709E+01 0.60602615643E+01 0.62464379709E+01 0.68295595652E+01
 0.78869626844E+01 0.95353670271E+01 0.11860074537E+02 0.14971833850E+02 0.18933163256E+02
 0.23310739483E+02 0.27374474223E+02 0.30494595751E+02 0.32375741927E+02 0.23304293000E+02
 0.22829747183E+02 0.21439288107E+02 0.19274302761E+02 0.16641218871E+02 0.13957259457E+02
 0.11557535616E+02 0.95353670271E+01 0.79485022028E+01 0.68021757621E+01 0.60376717645E+01
 0.55980526681E+01 0.54539828386E+01 0.55980526681E+01 0.60376717645E+01 0.68021757621E+01
 0.79485022028E+01 0.95353670271E+01 0.11557535616E+02 0.13957259457E+02 0.16641218871E+02
 0.19274302761E+02 0.21439288107E+02 0.22829747183E+02 0.16574489036E+02 0.16263988027E+02
 0.15376470380E+02 0.14043809899E+02 0.12461819676E+02 0.10813197586E+02 0.92437421069E+01
 0.78869626844E+01 0.68021757621E+01 0.59889049636E+01 0.54239466993E+01 0.50890214432E+01
 0.49776275894E+01 0.50890214432E+01 0.54239466993E+01 0.59889049636E+01 0.68021757621E+01
 0.78869626844E+01 0.92437421069E+01 0.10813197586E+02 0.12461819676E+02 0.14043809899E+02
 0.15376470380E+02 0.16263988027E+02 0.12752270387E+02 0.12550185949E+02 0.11969935953E+02
 0.11085882350E+02 0.10011191425E+02 0.88741114007E+01 0.77878627122E+01 0.68295595652E+01
 0.60376717645E+01 0.54239466993E+01 0.49882404222E+01 0.47279709165E+01 0.46413978023E+01
 0.47279709165E+01 0.49882404222E+01 0.54239466993E+01 0.60376717645E+01 0.68295595652E+01
 0.77878627122E+01 0.88741114007E+01 0.10011191425E+02 0.11085882350E+02 0.11969935953E+02
 0.12550185949E+02 0.10811972575E+02 0.10657510153E+02 0.10215463729E+02 0.95451301016E+01
 0.87302459208E+01 0.78601926200E+01 0.70129871247E+01 0.62464379709E+01 0.55980526681E+01
 0.50890214432E+01 0.47279709165E+01 0.45144471811E+01 0.44440656457E+01 0.45144471811E+01
 0.47279709165E+01 0.50890214432E+01 0.55980526681E+01 0.62464379709E+01 0.70129871247E+01
 0.78601926200E+01 0.87302459208E+01 0.95451301016E+01 0.10215463729E+02 0.10657510153E+02
 0.10215568067E+02 0.10077173765E+02 0.96808907031E+01 0.90787067264E+01 0.83431259710E+01
 0.75513550245E+01 0.67723133662E+01 0.60602615643E+01 0.54539828386E+01 0.49776275894E+01
 0.46413978023E+01 0.44440656457E+01 0.43793912010E+01 0.44440656457E+01 0.46413978023E+01
 0.49776275894E+01 0.54539828386E+01 0.60602615643E+01 0.67723133662E+01 0.75513550245E+01
 0.83431259710E+01 0.90787067264E+01 0.96808907031E+01 0.10077173765E+02 0.10811972575E+02
 0.10657510153E+02 0.10215463729E+02 0.95451301016E+01 0.87302459208E+01 0.78601926200E+01
 0.70129871247E+01 0.62464379709E+01 0.55980526681E+01 0.50890214432E+01 0.47279709165E+01
 0.45144471811E+01 0.44440656457E+01 0.45144471811E+01 0.47279709165E+01 0.50890214432E+01
 0.55980526681E+01 0.62464379709E+01 0.70129871247E+01 0.78601926200E+01 0.87302459208E+01
 0.95451301016E+01 0.10215463729E+02 0.10657510153E+02 0.12752270387E+02 0.12550185949E+02
 0.11969935953E+02 0.11085882350E+02 0.10011191425E+02 0.88741114007E+01 0.77878627122E+01
 0.68295595652E+01 0.60376717645E+01 0.54239466993E+01 0.49882404222E+01 0.47279709165E+01
 0.46413978023E+01 0.47279709165E+01 0.49882404222E+01 0.54239466993E+01 0.60376717645E+01
 0.68295595652E+01 0.77878627122E+01 0.88741114007E+01 0.10011191425E+02 0.11085882350E+02
 0.11969935953E+02 0.12550185949E+02 0.16574489036E+02 0.16263988027E+02 0.15376470380E+02
 0.14043809899E+02 0.12461819676E+02 0.10813197586E+02 0.92437421069E+01 0.78869626844E+01
 0.68021757621E+01 0.59889049636E+01 0.54239466993E+01 0.50890214432E+01 0.49776275894E+01
 0.50890214432E+01 0.54239466993E+01 0.59889049636E+01 0.68021757621E+01 0.78869626844E+01
 0.92437421069E+01 0.10813197586E+02 0.12461819676E+02 0.14043809899E+02 0.15376470380E+02
 0.16263988027E+02 0.23304293000E+02 0.22829747183E+02 0.21439288107E+02 0.19274302761E+02
 0.16641218871E+02 0.13957259457E+02 0.11557535616E+02 0.95353670271E+01 0.79485022028E+01
 0.68021757621E+01 0.60376717645E+01 0.55980526681E+01 0.54539828386E+01 0.55980526681E+01
 0.60376717645E+01 0.68021757621E+01 0.79485022028E+01 0.95353670271E+01 0.11557535616E+02
 0.13957259457E+02 0.16641218871E+02 0.19274302761E+02 0.21439288107E+02 0.22829747183E+02
 0.32993034947E+02 0.32375741927E+02 0.30494595751E+02 0.27374474223E+02 0.23310739483E+02
 0.18933163256E+02 0.14971833850E+02 0.11860074537E+02 0.95353670271E+01 0.78869626844E+01
 0.68295595652E+01 0.62464379709E+01 0.60602615643E+01 0.62464379709E+01 0.68295595652E+01
 0.78869626844E+01 0.95353670271E+01 0.11860074537E+02 0.14971833850E+02 0.18933163256E+02
 0.23310739483E+02 0.27374474223E+02 0.30494595751E+02 0.32375741927E+02 0.44435238858E+02
 0.43748325310E+02 0.41564192694E+02 0.37689292381E+02 0.32247418646E+02 0.25936189721E+02
 0.19858877268E+02 0.14971833850E+02 0.11557535616E+02 0.92437421069E+01 0.77878627122E+01
 0.70129871247E+01 0.67723133662E+01 0.70129871247E+01 0.77878627122E+01 0.92437421069E+01
 0.11557535616E+02 0.14971833850E+02 0.19858877268E+02 0.25936189721E+02 0.32247418646E+02
 0.37689292381E+02 0.41564192694E+02 0.43748325310E+02 0.56203049035E+02 0.55457549357E+02
 0.53051312748E+02 0.48643578162E+02 0.42148815143E+02 0.34152879620E+02 0.25936189721E+02
 0.18933163256E+02 0.13957259457E+02 0.10813197586E+02 0.88741114007E+01 0.78601926200E+01
 0.75513550245E+01 0.78601926200E+01 0.88741114007E+01 0.10813197586E+02 0.13957259457E+02
 0.18933163256E+02 0.25936189721E+02 0.34152879620E+02 0.42148815143E+02 0.48643578162E+02