    2    2  200    1
  0.1505907E+02  0.2771859E-09  0.2771859E-09  0.3920000E-09  0.1000000E-15
  1.000000000000000E-004
  CAR 
 Cu-Bulk calculation RELAX               
     20    385     16
 
  0.0000000E+00  0.0000000E+00  0.0000000E+00  0.2374169E-03
    1        0.779047   1.000000
    2        3.912352   1.000000
    3        4.343015   1.000000
    4        7.026773   1.000000
    5        7.026822   1.000000
    6        7.026822   1.000000
    7        9.070704   1.000000
    8        9.071285   1.000000
    9       10.614548   0.443151
   10       11.063423  -0.000000
   11       11.063423  -0.000000
   12       12.460558  -0.000000
   13       19.125016   0.000000
   14       21.897194   0.000000
   15       21.897194   0.000000
   16       25.341687   0.000000
 
  0.5555556E-01  0.0000000E+00  0.0000000E+00  0.9496676E-03
    1        0.859506   1.000000
    2        3.970071   1.000000
    3        4.393365   1.000000
    4        6.987093   1.000000
    5        7.055128   1.000000
    6        7.066754   1.000000
    7        9.033437   1.000000
    8        9.072570   1.000000
    9       10.529259   0.986257
   10       10.547751   0.920293
   11       11.031091  -0.000000
   12       13.053933  -0.000000
   13       18.947686   0.000000
   14       21.743904   0.000000
   15       22.078081   0.000000
   16       25.464960   0.000000
 
  0.1111111E+00  0.0000000E+00  0.0000000E+00  0.9496676E-03
    1        1.096974   1.000000
    2        4.123923   1.000000
    3        4.554409   1.000000
    4        6.875762   1.000000
    5        7.139419   1.000000
    6        7.176217   1.000000
    7        8.926920   1.000000
    8        9.087726   1.000000
    9        9.729718   1.000000
   10       10.293320   1.000041
   11       10.935065  -0.000019
   12       14.104631   0.000000
   13       18.428584   0.000000
   14       21.388465   0.000000
   15       22.599803   0.000000
   16       25.815778   0.000000
 
  0.1666667E+00  0.0000000E+00  0.0000000E+00  0.9496676E-03
    1        1.479698   1.000000
    2        4.330237   1.000000
    3        4.840719   1.000000
    4        6.714018   1.000000
    5        7.277812   1.000000
    6        7.319070   1.000000
    7        8.770807   1.000000
    8        8.942168   1.000000
    9        9.149617   1.000000
   10        9.955241   1.000000
   11       10.778441  -0.018275
   12       15.278681   0.000000
   13       17.638559   0.000000
   14       20.985910   0.000000
   15       23.410894   0.000000
   16       26.333052   0.000000
 
  0.2222222E+00  0.0000000E+00  0.0000000E+00  0.9496676E-03
    1        1.987992   1.000000
    2        4.561881   1.000000
    3        5.227128   1.000000
    4        6.530580   1.000000
    5        7.428588   1.000000
    6        7.467123   1.000000
    7        8.234939   1.000000
    8        8.591212   1.000000
    9        9.320601   1.000000
   10        9.570321   1.000000
   11       10.566296   0.820024
   12       16.524084   0.000000
   13       16.705243   0.000000
   14       20.602197   0.000000
   15       24.451057   0.000000
   16       26.661463   0.000000
 
  0.2777778E+00  0.0000000E+00  0.0000000E+00  0.9496676E-03
    1        2.593976   1.000000
    2        4.811661   1.000000
    3        5.641760   1.000000
    4        6.355867   1.000000
    5        7.436034   1.000000
    6        7.623425   1.000000
    7        7.702861   1.000000
    8        8.416072   1.000000
    9        9.186036   1.000000
   10        9.663529   1.000000
   11       10.305690   1.000083
   12       15.747362   0.000000
   13       17.822000   0.000000
   14       20.270762   0.000000
   15       25.605463   0.000000
   16       25.665824   0.000000
 
  0.3333333E+00  0.0000000E+00  0.0000000E+00  0.9496676E-03
    1        3.260744   1.000000
    2        5.062644   1.000000
    3        5.998073   1.000000
    4        6.217652   1.000000
    5        7.114898   1.000000
    6        7.324284   1.000000
    7        7.979195   1.000000
    8        8.271014   1.000000
    9        8.837644   1.000000
   10       10.005470   1.000000
   11       10.187197   1.000000
   12       14.837265   0.000000
   13       19.159845   0.000000
   14       20.057255   0.000000
   15       24.504760   0.000000
   16       26.781848   0.000000
 
  0.3888889E+00  0.0000000E+00  0.0000000E+00  0.9496676E-03
    1        3.940215   1.000000
    2        5.264079   1.000000
    3        6.139089   1.000000
    4        6.239145   1.000000
    5        6.712883   1.000000
    6        7.122515   1.000000
    7        8.177232   1.000000
    8        8.288941   1.000000
    9        8.548957   1.000000
   10        9.675891   1.000000
   11       10.851454  -0.001531
   12       13.993596   0.000000
   13       20.069086   0.000000
   14       20.525714   0.000000
   15       23.329243   0.000000
   16       25.827345   0.000000
 
  0.4444444E+00  0.0000000E+00  0.0000000E+00  0.9496676E-03
    1        4.568319   1.000000
    2        5.300837   1.000000
    3        6.138241   1.000000
    4        6.408706   1.000000
    5        6.418044   1.000000
    6        6.871368   1.000000
    7        8.150582   1.000000
    8        8.334492   1.000000
    9        8.623618   1.000000
   10        9.328084   1.000000
   11       11.603538  -0.000000
   12       13.190326  -0.000000
   13       20.414407   0.000000
   14       21.905340   0.000000
   15       22.152308   0.000000
   16       24.608376   0.000000
 
  0.5000000E+00  0.0000000E+00  0.0000000E+00  0.4748338E-03
    1        5.057297   1.000000
    2        5.057297   1.000000
    3        6.228261   1.000000
    4        6.228261   1.000000
    5        6.616449   1.000000
    6        6.616449   1.000000
    7        8.201409   1.000000
    8        8.201409   1.000000
    9        8.973573   1.000000
   10        8.973573   1.000000
   11       12.394140  -0.000000
   12       12.394140  -0.000000
   13       21.131469   0.000000
   14       21.131469   0.000000
   15       23.277999   0.000000
   16       23.277999   0.000000
 
  0.5555556E-01  0.5555556E-01  0.0000000E+00  0.9496676E-03
    1        0.939693   1.000000
    2        4.029481   1.000000
    3        4.441781   1.000000
    4        6.923251   1.000000
    5        7.108195   1.000000
    6        7.108259   1.000000
    7        8.956889   1.000000
    8        9.112429   1.000000
    9       10.167259   1.000000
   10       10.442981   1.020849
   11       11.063816  -0.000000
   12       13.446164   0.000000
   13       18.817813   0.000000
   14       21.750713   0.000000
   15       22.040051   0.000000
   16       25.588408   0.000000
 
  0.1111111E+00  0.5555556E-01  0.0000000E+00  0.1899335E-02
    1        1.176243   1.000000
    2        4.187792   1.000000
    3        4.597409   1.000000
    4        6.796842   1.000000
    5        7.209598   1.000000
    6        7.222066   1.000000
    7        8.824951   1.000000
    8        9.151004   1.000000
    9        9.471641   1.000000
   10       10.205290   1.000000
   11       11.008091  -0.000000
   12       14.331579   0.000000
   13       18.399633   0.000000
   14       21.406333   0.000000
   15       22.420045   0.000000
   16       25.940018   0.000000
 
  0.1666667E+00  0.5555556E-01  0.0000000E+00  0.1899335E-02
    1        1.557113   1.000000
    2        4.398308   1.000000
    3        4.877095   1.000000
    4        6.630013   1.000000
    5        7.355842   1.000000
    6        7.370261   1.000000
    7        8.669115   1.000000
    8        8.749340   1.000000
    9        9.211612   1.000000
   10        9.867805   1.000000
   11       10.865667  -0.000809
   12       15.421798   0.000000
   13       17.695733   0.000000
   14       20.965003   0.000000
   15       23.137716   0.000000
   16       26.459066   0.000000
 
  0.2222222E+00  0.5555556E-01  0.0000000E+00  0.1899335E-02
    1        2.062166   1.000000
    2        4.632442   1.000000
    3        5.255121   1.000000
    4        6.445292   1.000000
    5        7.474461   1.000000
    6        7.549480   1.000000
    7        8.079843   1.000000
    8        8.524140   1.000000
    9        9.360107   1.000000
   10        9.490542   1.000000
   11       10.659201   0.122378
   12       16.617586   0.000000
   13       16.808127   0.000000
   14       20.559997   0.000000
   15       24.081753   0.000000
   16       26.778019   0.000000
 
  0.2777778E+00  0.5555556E-01  0.0000000E+00  0.1899335E-02
    1        2.663059   1.000000
    2        4.885987   1.000000
    3        5.652187   1.000000
    4        6.270443   1.000000
    5        7.448919   1.000000
    6        7.492140   1.000000
    7        7.788178   1.000000
    8        8.419355   1.000000
    9        9.128071   1.000000
   10        9.675309   1.000000
   11       10.400935   1.006361
   12       15.862003   0.000000
   13       17.881427   0.000000
   14       20.223708   0.000000
   15       25.167341   0.000000
   16       25.710903   0.000000
 
  0.3333333E+00  0.5555556E-01  0.0000000E+00  0.1899335E-02
    1        3.322887   1.000000
    2        5.145992   1.000000
    3        5.971085   1.000000
    4        6.132064   1.000000
    5        6.999520   1.000000
    6        7.289386   1.000000
    7        8.066901   1.000000
    8        8.351100   1.000000
    9        8.824083   1.000000
   10       10.101422   1.000000
   11       10.182399   1.000000
   12       14.939497   0.000000
   13       19.193247   0.000000
   14       20.015380   0.000000
   15       24.585680   0.000000
   16       26.283218   0.000000
 
  0.3888889E+00  0.5555556E-01  0.0000000E+00  0.1899335E-02
    1        3.995216   1.000000
    2        5.362647   1.000000
    3        6.052673   1.000000
    4        6.152846   1.000000
    5        6.608444   1.000000
    6        7.049551   1.000000
    7        8.312686   1.000000
    8        8.378743   1.000000
    9        8.602293   1.000000
   10        9.771542   1.000000
   11       10.842734  -0.002211
   12       14.067967   0.000000
   13       20.038281   0.000000
   14       20.538001   0.000000
   15       23.378929   0.000000
   16       25.815411   0.000000
 
  0.4444444E+00  0.5555556E-01  0.0000000E+00  0.1899335E-02
    1        4.621624   1.000000
    2        5.397732   1.000000
    3        6.049915   1.000000
    4        6.281149   1.000000
    5        6.321200   1.000000
    6        6.773104   1.000000
    7        8.313322   1.000000
    8        8.454918   1.000000
    9        8.715313   1.000000
   10        9.422806   1.000000
   11       11.601397  -0.000000
   12       13.232177  -0.000000
   13       20.397857   0.000000
   14       21.900464   0.000000
   15       22.173903   0.000000
   16       24.586219   0.000000
 
  0.5000000E+00  0.5555556E-01  0.0000000E+00  0.9496676E-03
    1        5.125249   1.000000
    2        5.125249   1.000000
    3        6.136590   1.000000
    4        6.136590   1.000000
    5        6.497526   1.000000
    6        6.497526   1.000000
    7        8.360773   1.000000
    8        8.360773   1.000000
    9        9.066919   1.000000
   10        9.066919   1.000000
   11       12.408945  -0.000000
   12       12.408945  -0.000000
   13       21.131699   0.000000
   14       21.131699   0.000000
   15       23.260643   0.000000
   16       23.260643   0.000000
 
  0.1111111E+00  0.1111111E+00  0.0000000E+00  0.9496676E-03
    1        1.409685   1.000000
    2        4.358931   1.000000
    3        4.736790   1.000000
    4        6.636286   1.000000
    5        7.350383   1.000000
    6        7.350492   1.000000
    7        8.642054   1.000000
    8        8.920289   1.000000
    9        9.233607   1.000000
   10        9.965503   1.000000
   11       11.064791  -0.000000
   12       14.952436   0.000000
   13       18.235805   0.000000
   14       21.291980   0.000000
   15       22.243120   0.000000
   16       26.295005   0.000000
 
  0.1666667E+00  0.1111111E+00  0.0000000E+00  0.1899335E-02
    1        1.784182   1.000000
    2        4.582378   1.000000
    3        4.995397   1.000000
    4        6.444673   1.000000
    5        7.520311   1.000000
    6        7.529173   1.000000
    7        8.299824   1.000000
    8        8.454988   1.000000
    9        9.317500   1.000000
   10        9.633759   1.000000
   11       11.007087  -0.000000
   12       15.842827   0.000000
   13       17.799295   0.000000
   14       20.851842   0.000000
   15       22.592489   0.000000
   16       26.821955   0.000000
 
  0.2222222E+00  0.1111111E+00  0.0000000E+00  0.1899335E-02
    1        2.277846   1.000000
    2        4.821207   1.000000
    3        5.349991   1.000000
    4        6.245454   1.000000
    5        7.609631   1.000000
    6        7.700403   1.000000
    7        7.745696   1.000000
    8        8.364822   1.000000
    9        9.282448   1.000000
   10        9.447838   1.000000
   11       10.850426  -0.001600
   12       16.899967   0.000000
   13       17.073649   0.000000
   14       20.399295   0.000000
   15       23.289521   0.000000
   16       27.109835   0.000000
 
  0.2777778E+00  0.1111111E+00  0.0000000E+00  0.1899335E-02
    1        2.860246   1.000000
    2        5.079201   1.000000
    3        5.700984   1.000000
    4        6.062151   1.000000
    5        7.161868   1.000000
    6        7.488843   1.000000
    7        8.000543   1.000000
    8        8.442132   1.000000
    9        8.984467   1.000000
   10        9.707793   1.000000
   11       10.620240   0.395733
   12       16.176631   0.000000
   13       18.062425   0.000000
   14       20.056417   0.000000
   15       24.154935   0.000000
   16       26.011600   0.000000
 
  0.3333333E+00  0.1111111E+00  0.0000000E+00  0.1899335E-02
    1        3.493246   1.000000
    2        5.358941   1.000000
    3        5.917850   1.000000
    4        5.921787   1.000000
    5        6.704489   1.000000
    6        7.242699   1.000000
    7        8.291026   1.000000
    8        8.549442   1.000000
    9        8.801642   1.000000
   10       10.168253   1.000000
   11       10.336059   1.000415
   12       15.225259   0.000000
   13       19.294739   0.000000
   14       19.872038   0.000000
   15       24.810742   0.000000
   16       25.062588   0.000000
 
  0.3888889E+00  0.1111111E+00  0.0000000E+00  0.1899335E-02
    1        4.133036   1.000000
    2        5.639866   1.000000
    3        5.832694   1.000000
    4        5.937323   1.000000
    5        6.339045   1.000000
    6        6.954075   1.000000
    7        8.611630   1.000000
    8        8.622323   1.000000
    9        8.742663   1.000000
   10       10.013699   1.000000
   11       10.815954  -0.006092
   12       14.278511   0.000000
   13       19.934342   0.000000
   14       20.573981   0.000000
   15       23.511216   0.000000
   16       25.747085   0.000000
 
  0.4444444E+00  0.1111111E+00  0.0000000E+00  0.1899335E-02
    1        4.733777   1.000000
    2        5.632044   1.000000
    3        5.822729   1.000000
    4        6.031711   1.000000
    5        6.070519   1.000000
    6        6.647971   1.000000
    7        8.677565   1.000000
    8        8.738423   1.000000
    9        8.954561   1.000000
   10        9.667311   1.000000
   11       11.594261  -0.000000
   12       13.352485   0.000000
   13       20.339298   0.000000
   14       21.882037   0.000000
   15       22.225868   0.000000
   16       24.503183   0.000000
 
  0.5000000E+00  0.1111111E+00  0.0000000E+00  0.9496676E-03
    1        5.251059   1.000000
    2        5.251059   1.000000
    3        5.899537   1.000000
    4        5.899537   1.000000
    5        6.334227   1.000000
    6        6.334227   1.000000
    7        8.720399   1.000000
    8        8.720399   1.000000
    9        9.310166   1.000000
   10        9.310166   1.000000
   11       12.451876  -0.000000
   12       12.451876  -0.000000
   13       21.122809   0.000000
   14       21.122809   0.000000
   15       23.200242   0.000000
   16       23.200242   0.000000
 
  0.1666667E+00  0.1666667E+00  0.0000000E+00  0.9496676E-03
    1        2.145266   1.000000
    2        4.818150   1.000000
    3        5.224340   1.000000
    4        6.225136   1.000000
    5        7.746322   1.000000
    6        7.746502   1.000000
    7        7.763576   1.000000
    8        8.215024   1.000000
    9        9.323015   1.000000
   10        9.423631   1.000000
   11       11.065909  -0.000000
   12       16.509994   0.000000
   13       17.764882   0.000000
   14       20.494160   0.000000
   15       22.342655   0.000000
   16       27.371168   0.000000
 
  0.2222222E+00  0.1666667E+00  0.0000000E+00  0.1899335E-02
    1        2.614148   1.000000
    2        5.044736   1.000000
    3        5.556121   1.000000
    4        6.003560   1.000000
    5        7.229320   1.000000
    6        7.809746   1.000000
    7        7.997081   1.000000
    8        8.196337   1.000000
    9        9.023292   1.000000
   10        9.549503   1.000000
   11       11.008668  -0.000000
   12       17.370653   0.000000
   13       17.382870   0.000000
   14       20.007769   0.000000
   15       22.604383   0.000000
   16       27.597050   0.000000
 
  0.2777778E+00  0.1666667E+00  0.0000000E+00  0.1899335E-02
    1        3.154582   1.000000
    2        5.261491   1.000000
    3        5.803622   1.000000
    4        5.880620   1.000000
    5        6.740913   1.000000
    6        7.564050   1.000000
    7        8.279029   1.000000
    8        8.512990   1.000000
    9        8.828727   1.000000
   10        9.756933   1.000000
   11       10.849395  -0.001673
   12       16.621238   0.000000
   13       18.370888   0.000000
   14       19.678486   0.000000
   15       23.184197   0.000000
   16       26.452647   0.000000
 
  0.3333333E+00  0.1666667E+00  0.0000000E+00  0.1899335E-02
    1        3.722887   1.000000
    2        5.461614   1.000000
    3        5.646220   1.000000
    4        6.076421   1.000000
    5        6.322188   1.000000
    6        7.290805   1.000000
    7        8.589961   1.000000
    8        8.805694   1.000000
    9        8.810174   1.000000
   10       10.146566   1.000000
   11       10.611671   0.467382
   12       15.643489   0.000000
   13       19.468347   0.000000
   14       19.569045   0.000000
   15       23.912457   0.000000
   16       25.119167   0.000000
 
  0.3888889E+00  0.1666667E+00  0.0000000E+00  0.1899335E-02
    1        4.273913   1.000000
    2        5.549224   1.000000
    3        5.574963   1.000000
    4        5.986690   1.000000
    5        6.158102   1.000000
    6        7.022468   1.000000
    7        8.924983   1.000000
    8        8.935548   1.000000
    9        8.996755   1.000000
   10       10.317567   1.000159
   11       10.769359  -0.022352
   12       14.591140   0.000000
   13       19.722223   0.000000
   14       20.632889   0.000000
   15       23.673980   0.000000
   16       24.679604   0.000000
 
  0.4444444E+00  0.1666667E+00  0.0000000E+00  0.1899335E-02
    1        4.769264   1.000000
    2        5.474225   1.000000
    3        5.526744   1.000000
    4        5.741487   1.000000
    5        6.294073   1.000000
    6        6.762100   1.000000
    7        9.076723   1.000000
    8        9.105528   1.000000
    9        9.276489   1.000000
   10        9.986247   1.000000
   11       11.580230  -0.000000
   12       13.535242   0.000000
   13       20.212974   0.000000
   14       21.842548   0.000000
   15       22.270942   0.000000
   16       24.322951   0.000000
 
  0.5000000E+00  0.1666667E+00  0.0000000E+00  0.9496676E-03
    1        5.180605   1.000000
    2        5.180605   1.000000
    3        5.588829   1.000000
    4        5.588829   1.000000
    5        6.512932   1.000000
    6        6.512932   1.000000
    7        9.138213   1.000000
    8        9.138213   1.000000
    9        9.634372   1.000000
   10        9.634372   1.000000
   11       12.518225  -0.000000
   12       12.518225  -0.000000
   13       21.077476   0.000000
   14       21.077476   0.000000
   15       23.079018   0.000000
   16       23.079018   0.000000
 
  0.2222222E+00  0.2222222E+00  0.0000000E+00  0.9496676E-03
    1        3.035724   1.000000
    2        5.203991   1.000000
    3        5.760112   1.000000
    4        5.898067   1.000000
    5        6.749281   1.000000
    6        7.848446   1.000000
    7        8.281621   1.000000
    8        8.281892   1.000000
    9        8.810782   1.000000
   10        9.664465   1.000000
   11       11.066652  -0.000000
   12       17.525190   0.000000
   13       18.016410   0.000000
   14       19.376795   0.000000
   15       22.369550   0.000000
   16       28.047957   0.000000
 
  0.2777778E+00  0.2222222E+00  0.0000000E+00  0.1899335E-02
    1        3.494659   1.000000
    2        5.288688   1.000000
    3        5.541272   1.000000
    4        6.272458   1.000000
    5        6.305085   1.000000
    6        7.691138   1.000000
    7        8.593109   1.000000
    8        8.661979   1.000000
    9        8.746185   1.000000
   10        9.825724   1.000000
   11       11.010353  -0.000000
   12       17.116578   0.000000
   13       18.810447   0.000000
   14       18.967550   0.000000
   15       22.561864   0.000000
   16       26.866962   0.000000
 
  0.3333333E+00  0.2222222E+00  0.0000000E+00  0.1899335E-02
    1        3.938827   1.000000
    2        5.301047   1.000000
    3        5.367503   1.000000
    4        5.922316   1.000000
    5        6.567619   1.000000
    6        7.531648   1.000000
    7        8.885716   1.000000
    8        8.926300   1.000000
    9        9.082009   1.000000
   10       10.124732   1.000000
   11       10.852231  -0.001481
   12       16.132485   0.000000
   13       19.017110   0.000000
   14       19.720842   0.000000
   15       23.028448   0.000000
   16       25.374498   0.000000
 
  0.3888889E+00  0.2222222E+00  0.0000000E+00  0.1899335E-02
    1        4.327749   1.000000
    2        5.234419   1.000000
    3        5.255310   1.000000
    4        5.616105   1.000000
    5        6.773740   1.000000
    6        7.385895   1.000000
    7        9.159061   1.000000
    8        9.275559   1.000000
    9        9.386508   1.000000
   10       10.613827   0.449213
   11       10.700422  -0.015660
   12       14.954807   0.000000
   13       19.351018   0.000000
   14       20.718540   0.000000
   15       23.651541   0.000000
   16       23.778184   0.000000
 
  0.4444444E+00  0.2222222E+00  0.0000000E+00  0.1899335E-02
    1        4.645844   1.000000
    2        5.095892   1.000000
    3        5.217307   1.000000
    4        5.394923   1.000000
    5        6.940725   1.000000
    6        7.243834   1.000000
    7        9.414656   1.000000
    8        9.535398   1.000000
    9        9.632205   1.000000
   10       10.317721   1.000161
   11       11.556573  -0.000000
   12       13.752324   0.000000
   13       19.981588   0.000000
   14       21.780201   0.000000
   15       22.252718   0.000000
   16       24.022059   0.000000
 
  0.5000000E+00  0.2222222E+00  0.0000000E+00  0.9496676E-03
    1        4.898844   1.000000
    2        4.898844   1.000000
    3        5.262257   1.000000
    4        5.262257   1.000000
    5        7.096166   1.000000
    6        7.096166   1.000000
    7        9.547699   1.000000
    8        9.547699   1.000000
    9        9.984538   1.000000
   10        9.984538   1.000000
   11       12.599010  -0.000000
   12       12.599010  -0.000000
   13       20.955532   0.000000
   14       20.955532   0.000000
   15       22.887089   0.000000
   16       22.887089   0.000000
 
  0.2777778E+00  0.2777778E+00  0.0000000E+00  0.9496676E-03
    1        3.819058   1.000000
    2        5.204199   1.000000
    3        5.304254   1.000000
    4        5.898612   1.000000
    5        6.748687   1.000000
    6        7.863741   1.000000
    7        8.810511   1.000000
    8        8.929356   1.000000
    9        8.929732   1.000000
   10        9.930887   1.000000
   11       11.066677  -0.000000
   12       17.525159   0.000000
   13       18.015638   0.000000
   14       19.377539   0.000000
   15       22.369499   0.000000
   16       26.572345   0.000000
 
  0.3333333E+00  0.2777778E+00  0.0000000E+00  0.1899335E-02
    1        4.082908   1.000000
    2        5.062916   1.000000
    3        5.113552   1.000000
    4        5.547757   1.000000
    5        7.173894   1.000000
    6        8.012732   1.000000
    7        9.052072   1.000000
    8        9.280904   1.000000
    9        9.352103   1.000000
   10       10.124496   1.000000
   11       11.011363  -0.000000
   12       16.601209   0.000000
   13       18.213935   0.000000
   14       20.060584   0.000000
   15       22.513720   0.000000
   16       25.333439   0.000000
 
  0.3888889E+00  0.2777778E+00  0.0000000E+00  0.1899335E-02
    1        4.280544   1.000000
    2        4.898384   1.000000
    3        4.985083   1.000000
    4        5.268564   1.000000
    5        7.495336   1.000000
    6        8.068569   1.000000
    7        9.405261   1.000000
    8        9.638199   1.000000
    9        9.761869   1.000000
   10       10.606532   0.510841
   11       10.855451  -0.001286
   12       15.287655   0.000000
   13       18.810464   0.000000
   14       20.843155   0.000000
   15       22.893633   0.000000
   16       23.717436   0.000000
 
  0.4444444E+00  0.2777778E+00  0.0000000E+00  0.1899335E-02
    1        4.436835   1.000000
    2        4.734272   1.000000
    3        4.930544   1.000000
    4        5.070420   1.000000
    5        7.732407   1.000000
    6        8.026742   1.000000
    7        9.729402   1.000000
    8        9.930767   1.000000
    9        9.990532   1.000000
   10       10.618719   0.408316
   11       11.520366  -0.000000
   12       13.957780   0.000000
   13       19.617347   0.000000
   14       21.707749   0.000000
   15       22.107187   0.000000
   16       23.438181   0.000000
 
  0.5000000E+00  0.2777778E+00  0.0000000E+00  0.9496676E-03
    1        4.581705   1.000000
    2        4.581705   1.000000
    3        4.957708   1.000000
    4        4.957708   1.000000
    5        7.909210   1.000000
    6        7.909210   1.000000
    7        9.915373   1.000000
    8        9.915373   1.000000
    9       10.323410   1.000217
   10       10.323410   1.000217
   11       12.678347  -0.000000
   12       12.678347  -0.000000
   13       20.713394   0.000000
   14       20.713394   0.000000
   15       22.637479   0.000000
   16       22.637479   0.000000
 
  0.3333333E+00  0.3333333E+00  0.0000000E+00  0.9496676E-03
    1        4.152803   1.000000
    2        4.818612   1.000000
    3        4.906249   1.000000
    4        5.224839   1.000000
    5        7.762936   1.000000
    6        8.635774   1.000000
    7        9.322381   1.000000
    8        9.640790   1.000000
    9        9.641275   1.000000
   10       10.191765   1.000000
   11       11.065981  -0.000000
   12       16.509186   0.000000
   13       17.764760   0.000000
   14       20.494898   0.000000
   15       22.342512   0.000000
   16       24.822769   0.000000
 
  0.3888889E+00  0.3333333E+00  0.0000000E+00  0.1899335E-02
    1        4.187294   1.000000
    2        4.600235   1.000000
    3        4.761441   1.000000
    4        4.970063   1.000000
    5        8.243285   1.000000
    6        9.007830   1.000000
    7        9.673937   1.000000
    8        9.995322   1.000000
    9       10.091392   1.000000
   10       10.488293   1.035318
   11       11.011593  -0.000000
   12       15.399602   0.000000
   13       18.288588   0.000000
   14       21.027008   0.000000
   15       22.435879   0.000000
   16       23.416404   0.000000
 
  0.4444444E+00  0.3333333E+00  0.0000000E+00  0.1899335E-02
    1        4.227859   1.000000
    2        4.425773   1.000000
    3        4.690283   1.000000
    4        4.793399   1.000000
    5        8.595682   1.000000
    6        9.006836   1.000000
    7       10.010512   1.000000
    8       10.258496   1.000005
    9       10.328532   1.000284
   10       10.857823  -0.001157
   11       11.469617  -0.000000
   12       14.070692   0.000000
   13       19.161196   0.000000
   14       21.654127   0.000000
   15       21.764924   0.000000
   16       22.732124   0.000000
 
  0.5000000E+00  0.3333333E+00  0.0000000E+00  0.9496676E-03
    1        4.302598   1.000000
    2        4.302598   1.000000
    3        4.699885   1.000000
    4        4.699885   1.000000
    5        8.847767   1.000000
    6        8.847767   1.000000
    7       10.220188   1.000000
    8       10.220188   1.000000
    9       10.622964   0.373403
   10       10.622964   0.373403
   11       12.728669  -0.000000
   12       12.728669  -0.000000
   13       20.321125   0.000000
   14       20.321125   0.000000
   15       22.367093   0.000000
   16       22.367093   0.000000
 
  0.3888889E+00  0.3888889E+00  0.0000000E+00  0.9496676E-03
    1        4.103717   1.000000
    2        4.359473   1.000000
    3        4.600347   1.000000
    4        4.737253   1.000000
    5        8.919618   1.000000
    6        9.964726   1.000000
    7       10.065758   1.000000
    8       10.329886   1.000304
    9       10.330474   1.000313
   10       10.412709   1.009334
   11       11.064901  -0.000000
   12       14.951590   0.000000
   13       18.235504   0.000000
   14       21.292739   0.000000
   15       22.242917   0.000000
   16       22.557761   0.000000
 
  0.4444444E+00  0.3888889E+00  0.0000000E+00  0.1899335E-02
    1        4.064892   1.000000
    2        4.187690   1.000000
    3        4.512739   1.000000
    4        4.580481   1.000000
    5        9.442864   1.000000