Automatically generated mesh
     385
Reciprocal lattice
    0.00000000000000    0.00000000000000    0.00000000000000             1
    0.05555555555556    0.00000000000000    0.00000000000000             4
    0.11111111111111    0.00000000000000    0.00000000000000             4
    0.16666666666667    0.00000000000000    0.00000000000000             4
    0.22222222222222    0.00000000000000    0.00000000000000             4
    0.27777777777778    0.00000000000000    0.00000000000000             4
    0.33333333333333    0.00000000000000    0.00000000000000             4
    0.38888888888889    0.00000000000000    0.00000000000000             4
    0.44444444444444    0.00000000000000    0.00000000000000             4
    0.50000000000000    0.00000000000000    0.00000000000000             2
    0.05555555555556    0.05555555555556    0.00000000000000             4
    0.11111111111111    0.05555555555556    0.00000000000000             8
    0.16666666666667    0.05555555555556    0.00000000000000             8
    0.22222222222222    0.05555555555556    0.00000000000000             8
    0.27777777777778    0.05555555555556    0.00000000000000             8
    0.33333333333333    0.05555555555556    0.00000000000000             8
    0.38888888888889    0.05555555555556    0.00000000000000             8
    0.44444444444444    0.05555555555556    0.00000000000000             8
    0.50000000000000    0.05555555555556    0.00000000000000             4
    0.11111111111111    0.11111111111111    0.00000000000000             4
    0.16666666666667    0.11111111111111    0.00000000000000             8
    0.22222222222222    0.11111111111111    0.00000000000000             8
    0.27777777777778    0.11111111111111    0.00000000000000             8
    0.33333333333333    0.11111111111111    0.00000000000000             8
    0.38888888888889    0.11111111111111    0.00000000000000             8
    0.44444444444444    0.11111111111111    0.00000000000000             8
    0.50000000000000    0.11111111111111    0.00000000000000             4
    0.16666666666667    0.16666666666667    0.00000000000000             4
    0.22222222222222    0.16666666666667    0.00000000000000             8
    0.27777777777778    0.16666666666667    0.00000000000000             8
    0.33333333333333    0.16666666666667    0.00000000000000             8
    0.38888888888889    0.16666666666667    0.00000000000000             8
    0.44444444444444    0.16666666666667    0.00000000000000             8
    0.50000000000000    0.16666666666667    0.00000000000000             4
    0.22222222222222    0.22222222222222    0.00000000000000             4
    0.27777777777778    0.22222222222222    0.00000000000000             8
    0.33333333333333    0.22222222222222    0.00000000000000             8
    0.38888888888889    0.22222222222222    0.00000000000000             8
    0.44444444444444    0.22222222222222    0.00000000000000             8
    0.50000000000000    0.22222222222222    0.00000000000000             4
    0.27777777777778    0.27777777777778    0.00000000000000             4
    0.33333333333333    0.27777777777778    0.00000000000000             8
    0.38888888888889    0.27777777777778    0.00000000000000             8
    0.44444444444444    0.27777777777778    0.00000000000000             8
    0.50000000000000    0.27777777777778    0.00000000000000             4
    0.33333333333333    0.33333333333333    0.00000000000000             4
    0.38888888888889    0.33333333333333    0.00000000000000             8
    0.44444444444444    0.33333333333333    0.00000000000000             8
    0.50000000000000    0.33333333333333    0.00000000000000             4
    0.38888888888889    0.38888888888889    0.00000000000000             4
    0.44444444444444    0.38888888888889    0.00000000000000             8
    0.50000000000000    0.38888888888889    0.00000000000000             4
    0.44444444444444    0.44444444444444    0.00000000000000             4
    0.50000000000000    0.44444444444444    0.00000000000000             4
    0.50000000000000    0.50000000000000    0.00000000000000             1
    0.00000000000000    0.00000000000000    0.07692307692308             2
    0.05555555555556    0.00000000000000    0.07692307692308             8
    0.11111111111111    0.00000000000000    0.07692307692308             8
    0.16666666666667    0.00000000000000    0.07692307692308             8
    0.22222222222222    0.00000000000000    0.07692307692308             8
    0.27777777777778    0.00000000000000    0.07692307692308             8
    0.33333333333333    0.00000000000000    0.07692307692308             8
    0.38888888888889    0.00000000000000    0.07692307692308             8
    0.44444444444444    0.00000000000000    0.07692307692308             8
    0.50000000000000    0.00000000000000    0.07692307692308             4
    0.05555555555556    0.05555555555556    0.07692307692308             8
    0.11111111111111    0.05555555555556    0.07692307692308            16
    0.16666666666667    0.05555555555556    0.07692307692308            16
    0.22222222222222    0.05555555555556    0.07692307692308            16
    0.27777777777778    0.05555555555556    0.07692307692308            16
    0.33333333333333    0.05555555555556    0.07692307692308            16
    0.38888888888889    0.05555555555556    0.07692307692308            16
    0.44444444444444    0.05555555555556    0.07692307692308            16
    0.50000000000000    0.05555555555556    0.07692307692308             8
    0.11111111111111    0.11111111111111    0.07692307692308             8
    0.16666666666667    0.11111111111111    0.07692307692308            16
    0.22222222222222    0.11111111111111    0.07692307692308            16
    0.27777777777778    0.11111111111111    0.07692307692308            16
    0.33333333333333    0.11111111111111    0.07692307692308            16
    0.38888888888889    0.11111111111111    0.07692307692308            16
    0.44444444444444    0.11111111111111    0.07692307692308            16
    0.50000000000000    0.11111111111111    0.07692307692308             8
    0.16666666666667    0.16666666666667    0.07692307692308             8
    0.22222222222222    0.16666666666667    0.07692307692308            16
    0.27777777777778    0.16666666666667    0.07692307692308            16
    0.33333333333333    0.16666666666667    0.07692307692308            16
    0.38888888888889    0.16666666666667    0.07692307692308            16
    0.44444444444444    0.16666666666667    0.07692307692308            16
    0.50000000000000    0.16666666666667    0.07692307692308             8
    0.22222222222222    0.22222222222222    0.07692307692308             8
    0.27777777777778    0.22222222222222    0.07692307692308            16
    0.33333333333333    0.22222222222222    0.07692307692308            16
    0.38888888888889    0.22222222222222    0.07692307692308            16
    0.44444444444444    0.22222222222222    0.07692307692308            16
    0.50000000000000    0.22222222222222    0.07692307692308             8
    0.27777777777778    0.27777777777778    0.07692307692308             8
    0.33333333333333    0.27777777777778    0.07692307692308            16
    0.38888888888889    0.27777777777778    0.07692307692308            16
    0.44444444444444    0.27777777777778    0.07692307692308            16
    0.50000000000000    0.27777777777778    0.07692307692308             8
    0.33333333333333    0.33333333333333    0.07692307692308             8
    0.38888888888889    0.33333333333333    0.07692307692308            16
    0.44444444444444    0.33333333333333    0.07692307692308            16
    0.50000000000000    0.33333333333333    0.07692307692308             8
    0.38888888888889    0.38888888888889    0.07692307692308             8
    0.44444444444444    0.38888888888889    0.07692307692308            16
    0.50000000000000    0.38888888888889    0.07692307692308             8
    0.44444444444444    0.44444444444444    0.07692307692308             8
    0.50000000000000    0.44444444444444    0.07692307692308             8
    0.50000000000000    0.50000000000000    0.07692307692308             2
    0.00000000000000    0.00000000000000    0.15384615384615             2
    0.05555555555556    0.00000000000000    0.15384615384615             8
    0.11111111111111    0.00000000000000    0.15384615384615             8
    0.16666666666667    0.00000000000000    0.15384615384615             8
    0.22222222222222    0.00000000000000    0.15384615384615             8
    0.27777777777778    0.00000000000000    0.15384615384615             8
    0.33333333333333    0.00000000000000    0.15384615384615             8
    0.38888888888889    0.00000000000000    0.15384615384615             8
    0.44444444444444    0.00000000000000    0.15384615384615             8
    0.50000000000000    0.00000000000000    0.15384615384615             4
    0.05555555555556    0.05555555555556    0.15384615384615             8
    0.11111111111111    0.05555555555556    0.15384615384615            16
    0.16666666666667    0.05555555555556    0.15384615384615            16
    0.22222222222222    0.05555555555556    0.15384615384615            16
    0.27777777777778    0.05555555555556    0.15384615384615            16
    0.33333333333333    0.05555555555556    0.15384615384615            16
    0.38888888888889    0.05555555555556    0.15384615384615            16
    0.44444444444444    0.05555555555556    0.15384615384615            16
    0.50000000000000    0.05555555555556    0.15384615384615             8
    0.11111111111111    0.11111111111111    0.15384615384615             8
    0.16666666666667    0.11111111111111    0.15384615384615            16
    0.22222222222222    0.11111111111111    0.15384615384615            16
    0.27777777777778    0.11111111111111    0.15384615384615            16
    0.33333333333333    0.11111111111111    0.15384615384615            16
    0.38888888888889    0.11111111111111    0.15384615384615            16
    0.44444444444444    0.11111111111111    0.15384615384615            16
    0.50000000000000    0.11111111111111    0.15384615384615             8
    0.16666666666667    0.16666666666667    0.15384615384615             8
    0.22222222222222    0.16666666666667    0.15384615384615            16
    0.27777777777778    0.16666666666667    0.15384615384615            16
    0.33333333333333    0.16666666666667    0.15384615384615            16
    0.38888888888889    0.16666666666667    0.15384615384615            16
    0.44444444444444    0.16666666666667    0.15384615384615            16
    0.50000000000000    0.16666666666667    0.15384615384615             8
    0.22222222222222    0.22222222222222    0.15384615384615             8
    0.27777777777778    0.22222222222222    0.15384615384615            16
    0.33333333333333    0.22222222222222    0.15384615384615            16
    0.38888888888889    0.22222222222222    0.15384615384615            16
    0.44444444444444    0.22222222222222    0.15384615384615            16
    0.50000000000000    0.22222222222222    0.15384615384615             8
    0.27777777777778    0.27777777777778    0.15384615384615             8
    0.33333333333333    0.27777777777778    0.15384615384615            16
    0.38888888888889    0.27777777777778    0.15384615384615            16
    0.44444444444444    0.27777777777778    0.15384615384615            16
    0.50000000000000    0.27777777777778    0.15384615384615             8
    0.33333333333333    0.33333333333333    0.15384615384615             8
    0.38888888888889    0.33333333333333    0.15384615384615            16
    0.44444444444444    0.33333333333333    0.15384615384615            16
    0.50000000000000    0.33333333333333    0.15384615384615             8
    0.38888888888889    0.38888888888889    0.15384615384615             8
    0.44444444444444    0.38888888888889    0.15384615384615            16
    0.50000000000000    0.38888888888889    0.15384615384615             8
    0.44444444444444    0.44444444444444    0.15384615384615             8
    0.50000000000000    0.44444444444444    0.15384615384615             8
    0.50000000000000    0.50000000000000    0.15384615384615             2
    0.00000000000000    0.00000000000000    0.23076923076923             2
    0.05555555555556    0.00000000000000    0.23076923076923             8
    0.11111111111111    0.00000000000000    0.23076923076923             8
    0.16666666666667    0.00000000000000    0.23076923076923             8
    0.22222222222222    0.00000000000000    0.23076923076923             8
    0.27777777777778    0.00000000000000    0.23076923076923             8
    0.33333333333333    0.00000000000000    0.23076923076923             8
    0.38888888888889    0.00000000000000    0.23076923076923             8
    0.44444444444444    0.00000000000000    0.23076923076923             8
    0.50000000000000    0.00000000000000    0.23076923076923             4
    0.05555555555556    0.05555555555556    0.23076923076923             8
    0.11111111111111    0.05555555555556    0.23076923076923            16
    0.16666666666667    0.05555555555556    0.23076923076923            16
    0.22222222222222    0.05555555555556    0.23076923076923            16
    0.27777777777778    0.05555555555556    0.23076923076923            16
    0.33333333333333    0.05555555555556    0.23076923076923            16
    0.38888888888889    0.05555555555556    0.23076923076923            16
    0.44444444444444    0.05555555555556    0.23076923076923            16
    0.50000000000000    0.05555555555556    0.23076923076923             8
    0.11111111111111    0.11111111111111    0.23076923076923             8
    0.16666666666667    0.11111111111111    0.23076923076923            16
    0.22222222222222    0.11111111111111    0.23076923076923            16
    0.27777777777778    0.11111111111111    0.23076923076923            16
    0.33333333333333    0.11111111111111    0.23076923076923            16
    0.38888888888889    0.11111111111111    0.23076923076923            16
    0.44444444444444    0.11111111111111    0.23076923076923            16
    0.50000000000000    0.11111111111111    0.23076923076923             8
    0.16666666666667    0.16666666666667    0.23076923076923             8
    0.22222222222222    0.16666666666667    0.23076923076923            16
    0.27777777777778    0.16666666666667    0.23076923076923            16
    0.33333333333333    0.16666666666667    0.23076923076923            16
    0.38888888888889    0.16666666666667    0.23076923076923            16
    0.44444444444444    0.16666666666667    0.23076923076923            16
    0.50000000000000    0.16666666666667    0.23076923076923             8
    0.22222222222222    0.22222222222222    0.23076923076923             8
    0.27777777777778    0.22222222222222    0.23076923076923            16
    0.33333333333333    0.22222222222222    0.23076923076923            16
    0.38888888888889    0.22222222222222    0.23076923076923            16
    0.44444444444444    0.22222222222222    0.23076923076923            16
    0.50000000000000    0.22222222222222    0.23076923076923             8
    0.27777777777778    0.27777777777778    0.23076923076923             8
    0.33333333333333    0.27777777777778    0.23076923076923            16
    0.38888888888889    0.27777777777778    0.23076923076923            16
    0.44444444444444    0.27777777777778    0.23076923076923            16
    0.50000000000000    0.27777777777778    0.23076923076923             8
    0.33333333333333    0.33333333333333    0.23076923076923             8
    0.38888888888889    0.33333333333333    0.23076923076923            16
    0.44444444444444    0.33333333333333    0.23076923076923            16
    0.50000000000000    0.33333333333333    0.23076923076923             8
    0.38888888888889    0.38888888888889    0.23076923076923             8
    0.44444444444444    0.38888888888889    0.23076923076923            16
    0.50000000000000    0.38888888888889    0.23076923076923             8
    0.44444444444444    0.44444444444444    0.23076923076923             8
    0.50000000000000    0.44444444444444    0.23076923076923             8
    0.50000000000000    0.50000000000000    0.23076923076923             2
    0.00000000000000    0.00000000000000    0.30769230769231             2
    0.05555555555556    0.00000000000000    0.30769230769231             8
    0.11111111111111    0.00000000000000    0.30769230769231             8
    0.16666666666667    0.00000000000000    0.30769230769231             8
    0.22222222222222    0.00000000000000    0.30769230769231             8
    0.27777777777778    0.00000000000000    0.30769230769231             8
    0.33333333333333    0.00000000000000    0.30769230769231             8
    0.38888888888889    0.00000000000000    0.30769230769231             8
    0.44444444444444    0.00000000000000    0.30769230769231             8
    0.50000000000000    0.00000000000000    0.30769230769231             4
    0.05555555555556    0.05555555555556    0.30769230769231             8
    0.11111111111111    0.05555555555556    0.30769230769231            16
    0.16666666666667    0.05555555555556    0.30769230769231            16
    0.22222222222222    0.05555555555556    0.30769230769231            16
    0.27777777777778    0.05555555555556    0.30769230769231            16
    0.33333333333333    0.05555555555556    0.30769230769231            16
    0.38888888888889    0.05555555555556    0.30769230769231            16
    0.44444444444444    0.05555555555556    0.30769230769231            16
    0.50000000000000    0.05555555555556    0.30769230769231             8
    0.11111111111111    0.11111111111111    0.30769230769231             8
    0.16666666666667    0.11111111111111    0.30769230769231            16
    0.22222222222222    0.11111111111111    0.30769230769231            16
    0.27777777777778    0.11111111111111    0.30769230769231            16
    0.33333333333333    0.11111111111111    0.30769230769231            16
    0.38888888888889    0.11111111111111    0.30769230769231            16
    0.44444444444444    0.11111111111111    0.30769230769231            16
    0.50000000000000    0.11111111111111    0.30769230769231             8
    0.16666666666667    0.16666666666667    0.30769230769231             8
    0.22222222222222    0.16666666666667    0.30769230769231            16
    0.27777777777778    0.16666666666667    0.30769230769231            16
    0.33333333333333    0.16666666666667    0.30769230769231            16
    0.38888888888889    0.16666666666667    0.30769230769231            16
    0.44444444444444    0.16666666666667    0.30769230769231            16
    0.50000000000000    0.16666666666667    0.30769230769231             8
    0.22222222222222    0.22222222222222    0.30769230769231             8
    0.27777777777778    0.22222222222222    0.30769230769231            16
    0.33333333333333    0.22222222222222    0.30769230769231            16
    0.38888888888889    0.22222222222222    0.30769230769231            16
    0.44444444444444    0.22222222222222    0.30769230769231            16
    0.50000000000000    0.22222222222222    0.30769230769231             8
    0.27777777777778    0.27777777777778    0.30769230769231             8
    0.33333333333333    0.27777777777778    0.30769230769231            16
    0.38888888888889    0.27777777777778    0.30769230769231            16
    0.44444444444444    0.27777777777778    0.30769230769231            16
    0.50000000000000    0.27777777777778    0.30769230769231             8
    0.33333333333333    0.33333333333333    0.30769230769231             8
    0.38888888888889    0.33333333333333    0.30769230769231            16
    0.44444444444444    0.33333333333333    0.30769230769231            16
    0.50000000000000    0.33333333333333    0.30769230769231             8
    0.38888888888889    0.38888888888889    0.30769230769231             8
    0.44444444444444    0.38888888888889    0.30769230769231            16
    0.50000000000000    0.38888888888889    0.30769230769231             8
    0.44444444444444    0.44444444444444    0.30769230769231             8
    0.50000000000000    0.44444444444444    0.30769230769231             8
    0.50000000000000    0.50000000000000    0.30769230769231             2
    0.00000000000000    0.00000000000000    0.38461538461539             2
    0.05555555555556    0.00000000000000    0.38461538461539             8
    0.11111111111111    0.00000000000000    0.38461538461539             8
    0.16666666666667    0.00000000000000    0.38461538461539             8
    0.22222222222222    0.00000000000000    0.38461538461539             8
    0.27777777777778    0.00000000000000    0.38461538461539             8
    0.33333333333333    0.00000000000000    0.38461538461539             8
    0.38888888888889    0.00000000000000    0.38461538461539             8
    0.44444444444444    0.00000000000000    0.38461538461539             8
    0.50000000000000    0.00000000000000    0.38461538461539             4
    0.05555555555556    0.05555555555556    0.38461538461539             8
    0.11111111111111    0.05555555555556    0.38461538461539            16
    0.16666666666667    0.05555555555556    0.38461538461539            16
    0.22222222222222    0.05555555555556    0.38461538461539            16
    0.27777777777778    0.05555555555556    0.38461538461539            16
    0.33333333333333    0.05555555555556    0.38461538461539            16
    0.38888888888889    0.05555555555556    0.38461538461539            16
    0.44444444444444    0.05555555555556    0.38461538461539            16
    0.50000000000000    0.05555555555556    0.38461538461539             8
    0.11111111111111    0.11111111111111    0.38461538461539             8
    0.16666666666667    0.11111111111111    0.38461538461539            16
    0.22222222222222    0.11111111111111    0.38461538461539            16
    0.27777777777778    0.11111111111111    0.38461538461539            16
    0.33333333333333    0.11111111111111    0.38461538461539            16
    0.38888888888889    0.11111111111111    0.38461538461539            16
    0.44444444444444    0.11111111111111    0.38461538461539            16
    0.50000000000000    0.11111111111111    0.38461538461539             8
    0.16666666666667    0.16666666666667    0.38461538461539             8
    0.22222222222222    0.16666666666667    0.38461538461539            16
    0.27777777777778    0.16666666666667    0.38461538461539            16
    0.33333333333333    0.16666666666667    0.38461538461539            16
    0.38888888888889    0.16666666666667    0.38461538461539            16
    0.44444444444444    0.16666666666667    0.38461538461539            16
    0.50000000000000    0.16666666666667    0.38461538461539             8
    0.22222222222222    0.22222222222222    0.38461538461539             8
    0.27777777777778    0.22222222222222    0.38461538461539            16
    0.33333333333333    0.22222222222222    0.38461538461539            16
    0.38888888888889    0.22222222222222    0.38461538461539            16
    0.44444444444444    0.22222222222222    0.38461538461539            16
    0.50000000000000    0.22222222222222    0.38461538461539             8
    0.27777777777778    0.27777777777778    0.38461538461539             8
    0.33333333333333    0.27777777777778    0.38461538461539            16
    0.38888888888889    0.27777777777778    0.38461538461539            16
    0.44444444444444    0.27777777777778    0.38461538461539            16
    0.50000000000000    0.27777777777778    0.38461538461539             8
    0.33333333333333    0.33333333333333    0.38461538461539             8
    0.38888888888889    0.33333333333333    0.38461538461539            16
    0.44444444444444    0.33333333333333    0.38461538461539            16
    0.50000000000000    0.33333333333333    0.38461538461539             8
    0.38888888888889    0.38888888888889    0.38461538461539             8
    0.44444444444444    0.38888888888889    0.38461538461539            16
    0.50000000000000    0.38888888888889    0.38461538461539             8
    0.44444444444444    0.44444444444444    0.38461538461539             8
    0.50000000000000    0.44444444444444    0.38461538461539             8
    0.50000000000000    0.50000000000000    0.38461538461539             2
    0.00000000000000    0.00000000000000    0.46153846153846             2
    0.05555555555556    0.00000000000000    0.46153846153846             8
    0.11111111111111    0.00000000000000    0.46153846153846             8
    0.16666666666667    0.00000000000000    0.46153846153846             8
    0.22222222222222    0.00000000000000    0.46153846153846             8
    0.27777777777778    0.00000000000000    0.46153846153846             8
    0.33333333333333    0.00000000000000    0.46153846153846             8
    0.38888888888889    0.00000000000000    0.46153846153846             8
    0.44444444444444    0.00000000000000    0.46153846153846             8
    0.50000000000000    0.00000000000000    0.46153846153846             4
    0.05555555555556    0.05555555555556    0.46153846153846             8
    0.11111111111111    0.05555555555556    0.46153846153846            16
    0.16666666666667    0.05555555555556    0.46153846153846            16
    0.22222222222222    0.05555555555556    0.46153846153846            16
    0.27777777777778    0.05555555555556    0.46153846153846            16
    0.33333333333333    0.05555555555556    0.46153846153846            16
    0.38888888888889    0.05555555555556    0.46153846153846            16
    0.44444444444444    0.05555555555556    0.46153846153846            16
    0.50000000000000    0.05555555555556    0.46153846153846             8
    0.11111111111111    0.11111111111111    0.46153846153846             8
    0.16666666666667    0.11111111111111    0.46153846153846            16
    0.22222222222222    0.11111111111111    0.46153846153846            16
    0.27777777777778    0.11111111111111    0.46153846153846            16
    0.33333333333333    0.11111111111111    0.46153846153846            16
    0.38888888888889    0.11111111111111    0.46153846153846            16
    0.44444444444444    0.11111111111111    0.46153846153846            16
    0.50000000000000    0.11111111111111    0.46153846153846             8
    0.16666666666667    0.16666666666667    0.46153846153846             8
    0.22222222222222    0.16666666666667    0.46153846153846            16
    0.27777777777778    0.16666666666667    0.46153846153846            16
    0.33333333333333    0.16666666666667    0.46153846153846            16
    0.38888888888889    0.16666666666667    0.46153846153846            16
    0.44444444444444    0.16666666666667    0.46153846153846            16
    0.50000000000000    0.16666666666667    0.46153846153846             8
    0.22222222222222    0.22222222222222    0.46153846153846             8
    0.27777777777778    0.22222222222222    0.46153846153846            16
    0.33333333333333    0.22222222222222    0.46153846153846            16
    0.38888888888889    0.22222222222222    0.46153846153846            16
    0.44444444444444    0.22222222222222    0.46153846153846            16
    0.50000000000000    0.22222222222222    0.46153846153846             8
    0.27777777777778    0.27777777777778    0.46153846153846             8
    0.33333333333333    0.27777777777778    0.46153846153846            16
    0.38888888888889    0.27777777777778    0.46153846153846            16
    0.44444444444444    0.27777777777778    0.46153846153846            16
    0.50000000000000    0.27777777777778    0.46153846153846             8
    0.33333333333333    0.33333333333333    0.46153846153846             8
    0.38888888888889    0.33333333333333    0.46153846153846            16
    0.44444444444444    0.33333333333333    0.46153846153846            16
    0.50000000000000    0.33333333333333    0.46153846153846             8
    0.38888888888889    0.38888888888889    0.46153846153846             8
    0.44444444444444    0.38888888888889    0.46153846153846            16
    0.50000000000000    0.38888888888889    0.46153846153846             8
    0.44444444444444    0.44444444444444    0.46153846153846             8
    0.50000000000000    0.44444444444444    0.46153846153846             8
    0.50000000000000    0.50000000000000    0.46153846153846             2
