       N       E                     dE             d eps       ncg     rms          rms(c)
DAV:   1     0.802212599006E+02    0.80221E+02   -0.12191E+04 12352   0.134E+03
DAV:   2    -0.125528728790E+02   -0.92774E+02   -0.92150E+02 13216   0.207E+02
DAV:   3    -0.129175824279E+02   -0.36471E+00   -0.36401E+00 18896   0.170E+01
DAV:   4    -0.129179991101E+02   -0.41668E-03   -0.41667E-03 16240   0.429E-01
DAV:   5    -0.129179992962E+02   -0.18604E-06   -0.18654E-06 19344   0.904E-03    0.183E+01
RMM:   6    -0.122464476731E+02    0.67155E+00   -0.10119E+00 12320   0.792E+00    0.970E+00
RMM:   7    -0.121693593135E+02    0.77088E-01   -0.24019E-01 12320   0.382E+00    0.305E+00
RMM:   8    -0.121613831392E+02    0.79762E-02   -0.20532E-02 12320   0.111E+00    0.893E-01
RMM:   9    -0.121608130597E+02    0.57008E-03   -0.52124E-04 12320   0.177E-01    0.556E-02
RMM:  10    -0.121608164454E+02   -0.33857E-05   -0.11248E-05 11187   0.210E-02    0.108E-02
RMM:  11    -0.121608163269E+02    0.11851E-06   -0.50951E-07  7191   0.626E-03
   1 F= -.12160816E+02 E0= -.12160084E+02  d E =-.121608E+02
       N       E                     dE             d eps       ncg     rms          rms(c)
DAV:   1    -0.123173929581E+02   -0.15658E+00   -0.31432E+00 14000   0.145E+01    0.230E+00
RMM:   2    -0.121974989529E+02    0.11989E+00   -0.19400E-01 12320   0.343E+00    0.103E+00
RMM:   3    -0.121912856092E+02    0.62133E-02   -0.16775E-02 12320   0.967E-01    0.601E-01
RMM:   4    -0.121916642331E+02   -0.37862E-03   -0.67565E-04 12320   0.178E-01    0.582E-02
RMM:   5    -0.121916878353E+02   -0.23602E-04   -0.33712E-05 11732   0.306E-02    0.106E-02
RMM:   6    -0.121916919074E+02   -0.40721E-05   -0.27082E-06  9200   0.972E-03    0.400E-03
RMM:   7    -0.121916922037E+02   -0.29630E-06   -0.24769E-07  6689   0.361E-03
   2 F= -.12191692E+02 E0= -.12190929E+02  d E =-.308759E-01
       N       E                     dE             d eps       ncg     rms          rms(c)
DAV:   1    -0.122082131149E+02   -0.16521E-01   -0.35678E-01 13232   0.487E+00    0.781E-01
RMM:   2    -0.121944527007E+02    0.13760E-01   -0.22650E-02 12320   0.117E+00    0.318E-01
RMM:   3    -0.121937604260E+02    0.69227E-03   -0.19153E-03 12320   0.326E-01    0.187E-01
RMM:   4    -0.121937996722E+02   -0.39246E-04   -0.88766E-05 12320   0.658E-02    0.637E-03
RMM:   5    -0.121938007439E+02   -0.10717E-05   -0.33131E-06  9252   0.103E-02    0.331E-03
RMM:   6    -0.121938012168E+02   -0.47286E-06   -0.24401E-07  6585   0.331E-03
   3 F= -.12193801E+02 E0= -.12193029E+02  d E =-.210901E-02
       N       E                     dE             d eps       ncg     rms          rms(c)
DAV:   1    -0.121938155167E+02   -0.14773E-04   -0.31879E-04 16784   0.143E-01    0.225E-02
RMM:   2    -0.121938042819E+02    0.11235E-04   -0.18249E-05 12309   0.332E-02    0.884E-03
RMM:   3    -0.121938034296E+02    0.85225E-06   -0.15505E-06  6415   0.943E-03
   4 F= -.12193803E+02 E0= -.12193031E+02  d E =-.221289E-05
