Cu-Bulk calculation RELAX               
           1
     2.771859    0.000000    0.000000
     0.000000    2.771859    0.000000
     0.000000    0.000000    3.920000
   Pt
   2
Direct configuration=     1
   0.00000000  0.00000000  0.00000000
   0.50000000  0.50000000  0.50000000
Cu-Bulk calculation RELAX               
           1
     2.796873    0.000000   -0.000000
     0.000000    2.796873    0.000000
     0.000000    0.000000    3.954780
   Pt
   2
Direct configuration=     2
   0.00000000  0.00000000  0.00000000
   0.50000000  0.50000000  0.50000000
Cu-Bulk calculation RELAX               
           1
     2.805241    0.000000   -0.000000
     0.000000    2.805241    0.000000
     0.000000   -0.000000    3.966704
   Pt
   2
Direct configuration=     3
  -0.00000000 -0.00000000  0.00000000
   0.50000000  0.50000000  0.50000000
Cu-Bulk calculation RELAX               
           1
     2.805395    0.000000    0.000000
     0.000000    2.805395    0.000000
     0.000000   -0.000000    3.967272
   Pt
   2
Direct configuration=     4
  -0.00000000 -0.00000000  0.00000000
   0.50000000  0.50000000  0.50000000
