ITEM: TIMESTEP
1
ITEM: NUMBER OF ATOMS
3074
ITEM: BOX BOUNDS pp pp pp
0.0000000000000000e+00 3.8693948398131120e+01
0.0000000000000000e+00 4.4679925159782847e+01
0.0000000000000000e+00 6.0000000000000000e+01
ITEM: ATOMS id type x y z c_peratom[1] c_peratom[2] c_peratom[3] c_peratom[4] c_peratom[5] c_peratom[6]
1 2 0 0 0 -205474 -205472 10193.3 0.000226964 0.270267 -0.000197022
2 2 3.2245 5.85853e-14 2.27913 29880 29882.2 -82083.7 -4.52591e-05 0.367592 -0.000160428
3 2 1.61225 2.71194e-13 4.55799 42639.6 42641.7 11172.9 -1.11315e-06 0.367863 -0.000236412
4 2 2.41837 1.39625 0 -205474 -205472 10193.3 -0.0001923 0.269843 -0.00034652
5 2 0.806124 1.39625 2.27913 29880 29882.2 -82083.7 3.73625e-05 0.367828 -0.000282547
6 2 4.03062 1.39625 4.55799 42639.6 42641.7 11172.9 0.000162416 0.367808 -0.000135707
7 2 -6.08635e-14 1.70428e-13 6.83699 43278.9 43281.2 15691.2 -0.000237444 0.540115 0.000167167
8 2 3.2245 -3.8701e-15 9.11598 43284.3 43286.4 15716.8 0.000215587 0.368101 0.000335347
9 2 1.61225 -1.21144e-13 11.395 43284.2 43286.3 15716 -2.36807e-06 0.367782 0.000356398
10 2 2.41837 1.39625 6.83699 43278.9 43281.2 15691.2 0.000199823 0.540378 0.000280974
11 2 0.806124 1.39625 9.11598 43284.3 43286.4 15716.8 -0.000181991 0.367668 0.000606555
12 2 4.03062 1.39625 11.395 43284.2 43286.3 15716 -9.23703e-05 0.367761 0.000108926
13 2 2.29086e-13 -1.73591e-13 13.674 43283.9 43286.2 15715 0.000314981 0.540256 -3.74705e-05
14 2 3.2245 -1.8627e-13 15.953 43284.3 43286.4 15716.8 -0.000389996 0.367668 -0.000169132
15 2 1.61225 -2.43813e-13 18.232 43279.2 43281.3 15691.6 1.43672e-05 0.367797 -0.000249089
16 2 2.41837 1.39625 13.674 43283.9 43286.2 15715 -0.000250789 0.540164 -2.61982e-05
17 2 0.806124 1.39625 15.953 43284.3 43286.4 15716.8 0.000287984 0.367845 -0.000259775
18 2 4.03062 1.39625 18.232 43279.2 43281.3 15691.6 -0.000264706 0.367924 1.42135e-05
19 2 1.59052e-13 -1.30914e-13 20.511 42636.9 42639.2 11160.7 4.60109e-05 0.540414 -4.9759e-05
20 2 3.2245 -2.49046e-14 22.7898 30321 30323.1 -80091 6.55777e-05 0.365 6.45752e-06
21 2 1.61225 -1.82316e-13 25.0691 -205035 -205033 12175.2 -1.95687e-06 0.0946427 3.67351e-05
22 2 2.41837 1.39625 20.511 42636.9 42639.2 11160.7 4.9521e-05 0.540455 -8.47611e-05
23 2 0.806124 1.39625 22.7898 30321 30323.1 -80091 -7.47417e-05 0.36497 -8.63941e-06
24 2 4.03062 1.39625 25.0691 -205035 -205033 12175.2 0.000499998 0.0945518 -0.000127803
25 2 0 2.7925 0 -205474 -205472 10193.3 0.000427003 0.270346 -0.000496317
26 2 3.2245 2.7925 2.27913 29880 29882.2 -82083.7 -5.48722e-05 0.367697 -0.000279597
27 2 1.61225 2.7925 4.55799 42639.6 42641.7 11172.9 -3.51574e-06 0.367856 -0.000288852
28 2 2.41837 4.18874 0 -205474 -205472 10193.3 -0.000187061 0.26983 -0.00059724
29 2 0.806124 4.18874 2.27913 29880 29882.2 -82083.7 8.4698e-06 0.367753 -0.000253191
30 2 4.03062 4.18874 4.55799 42639.6 42641.7 11172.9 0.000311019 0.368275 9.9671e-05
31 2 6.33991e-14 2.7925 6.83699 43278.9 43281.2 15691.2 -0.000429049 0.53993 0.000476739
32 2 3.2245 2.7925 9.11598 43284.3 43286.4 15716.8 0.00022916 0.367834 0.000546644
33 2 1.61225 2.7925 11.395 43284.2 43286.3 15716 -1.41412e-07 0.367798 0.000289057
34 2 2.41837 4.18874 6.83699 43278.9 43281.2 15691.2 0.000161778 0.540417 0.000613909
35 2 0.806124 4.18874 9.11598 43284.3 43286.4 15716.8 1.56385e-06 0.367889 0.000443125
36 2 4.03062 4.18874 11.395 43284.2 43286.3 15716 -0.000304316 0.367244 -0.000196845
37 2 3.27926e-13 2.7925 13.674 43283.9 43286.2 15715 0.00039389 0.540531 -0.00020455
38 2 3.2245 2.7925 15.953 43284.3 43286.4 15716.8 -0.000182604 0.367845 -0.000121912
39 2 1.61225 2.7925 18.232 43279.2 43281.3 15691.6 7.64686e-06 0.367787 -5.92989e-05
40 2 2.41837 4.18874 13.674 43283.9 43286.2 15715 -6.43657e-05 0.540169 -0.000350627
41 2 0.806124 4.18874 15.953 43284.3 43286.4 15716.8 -0.000146519 0.367653 -2.64388e-05
42 2 4.03062 4.18874 18.232 43279.2 43281.3 15691.6 0.000529704 0.368233 0.000282338
43 2 -4.04339e-13 2.7925 20.511 42636.9 42639.2 11160.7 -0.000293223 0.540146 9.86777e-05
44 2 3.2245 2.7925 22.7898 30321 30323.1 -80091 0.000139514 0.365021 -8.88165e-07
45 2 1.61225 2.7925 25.0691 -205035 -205033 12175.2 -1.76879e-05 0.0946556 -0.000154438
46 2 2.41837 4.18874 20.511 42636.9 42639.2 11160.7 0.000187038 0.540482 0.000284092
47 2 0.806124 4.18874 22.7898 30321 30323.1 -80091 -1.76802e-05 0.365013 1.568e-05
48 2 4.03062 4.18874 25.0691 -205035 -205033 12175.2 -0.000685232 0.0944229 -0.000347615
49 2 0 5.58499 0 -205474 -205472 10193.3 0.000245538 0.27024 -0.000597038
50 2 3.2245 5.58499 2.27913 29880 29882.2 -82083.7 3.98919e-05 0.367849 -0.000130135
51 2 1.61225 5.58499 4.55799 42639.6 42641.7 11172.9 -5.2834e-06 0.36785 0.0002449
52 2 2.41837 6.98124 0 -205474 -205472 10193.3 -6.03509e-05 0.26996 -0.000658488
53 2 0.806124 6.98124 2.27913 29880 29882.2 -82083.7 -4.99169e-05 0.367665 -5.96012e-05
54 2 4.03062 6.98124 4.55799 42639.6 42641.7 11172.9 0.00033718 0.368334 0.000397327
55 2 2.14063e-13 5.58499 6.83699 43278.9 43281.2 15691.2 -0.000104709 0.540115 0.00057421
56 2 3.2245 5.58499 9.11598 43284.3 43286.4 15716.8 -0.000276091 0.367424 4.18952e-05
57 2 1.61225 5.58499 11.395 43284.2 43286.3 15716 2.42496e-06 0.367806 -0.000571037
58 2 2.41837 6.98124 6.83699 43278.9 43281.2 15691.2 -5.56039e-05 0.540179 0.000641766
59 2 0.806124 6.98124 9.11598 43284.3 43286.4 15716.8 0.000244908 0.368069 -0.0001854
60 2 4.03062 6.98124 11.395 43284.2 43286.3 15716 -1.11963e-05 0.367832 -0.00021691
61 2 -1.62207e-13 5.58499 13.674 43283.9 43286.2 15715 -0.000311716 0.540101 -0.000201992
62 2 3.2245 5.58499 15.953 43284.3 43286.4 15716.8 0.000656546 0.368183 0.000253062
63 2 1.61225 5.58499 18.232 43279.2 43281.3 15691.6 -1.15266e-05 0.367781 0.000628178
64 2 2.41837 6.98124 13.674 43283.9 43286.2 15715 0.000336388 0.540541 -0.000229814
65 2 0.806124 6.98124 15.953 43284.3 43286.4 15716.8 -0.000416874 0.367556 0.000413766
66 2 4.03062 6.98124 18.232 43279.2 43281.3 15691.6 -0.00058845 0.367122 -0.000214356
67 2 -3.09055e-13 5.58499 20.511 42636.9 42639.2 11160.7 0.000238533 0.540572 0.000139215
68 2 3.2245 5.58499 22.7898 30321 30323.1 -80091 -0.000398344 0.364858 -8.59395e-05
69 2 1.61225 5.58499 25.0691 -205035 -205033 12175.2 1.49069e-05 0.0946586 -0.000529115
70 2 2.41837 6.98124 20.511 42636.9 42639.2 11160.7 -0.000579926 0.540032 0.000161952
71 2 0.806124 6.98124 22.7898 30321 30323.1 -80091 0.000461551 0.365113 -8.95665e-05
72 2 4.03062 6.98124 25.0691 -205035 -205033 12175.2 -0.00169816 0.0952385 0.000243991
73 2 0 8.37749 0 -205474 -205472 10193.3 1.03486e-06 0.269837 -0.000462912
74 2 3.2245 8.37749 2.27913 29880 29882.2 -82083.7 0.00012343 0.368006 5.26996e-05
75 2 1.61225 8.37749 4.55799 42639.6 42641.7 11172.9 -4.04354e-06 0.367852 0.000619603
76 2 2.41837 9.77373 0 -205474 -205472 10193.3 2.91054e-05 0.270202 -0.000421164
77 2 0.806124 9.77373 2.27913 29880 29882.2 -82083.7 -7.23884e-05 0.367586 8.41187e-05
78 2 4.03062 9.77373 4.55799 42639.6 42641.7 11172.9 0.000152055 0.367886 0.000270307
79 2 3.92208e-13 8.37749 6.83699 43278.9 43281.2 15691.2 0.000267888 0.540745 0.000288134
80 2 3.2245 8.37749 9.11598 43284.3 43286.4 15716.8 -0.000375741 0.367408 -0.00029722
81 2 1.61225 8.37749 11.395 43284.2 43286.3 15716 -6.7128e-06 0.367786 -0.000617704
82 2 2.41837 9.77373 6.83699 43278.9 43281.2 15691.2 -0.000175158 0.539854 0.000170366
83 2 0.806124 9.77373 9.11598 43284.3 43286.4 15716.8 0.000122917 0.367912 -0.000370766
84 2 4.03062 9.77373 11.395 43284.2 43286.3 15716 0.00058465 0.368912 0.000155205
85 2 -1.14694e-12 8.37749 13.674 43283.9 43286.2 15715 -0.000759214 0.539483 7.50753e-05
86 2 3.2245 8.37749 15.953 43284.3 43286.4 15716.8 0.000152336 0.367614 0.000162836
87 2 1.61225 8.37749 18.232 43279.2 43281.3 15691.6 2.52378e-05 0.367815 0.000423738
88 2 2.41837 9.77373 13.674 43283.9 43286.2 15715 0.000356078 0.540647 0.000323684
89 2 0.806124 9.77373 15.953 43284.3 43286.4 15716.8 0.000375077 0.368356 0.000276981
90 2 4.03062 9.77373 18.232 43279.2 43281.3 15691.6 -0.0020902 0.366156 -0.000530309
91 2 2.34089e-12 8.37749 20.511 42636.9 42639.2 11160.7 0.00171903 0.541211 -0.000176434
92 2 3.2245 8.37749 22.7898 30321 30323.1 -80091 -0.000649504 0.365014 -1.20995e-05
93 2 1.61225 8.37749 25.0691 -205035 -205033 12175.2 4.06208e-05 0.0946264 -0.000160285
94 2 2.41837 9.77373 20.511 42636.9 42639.2 11160.7 -0.00110579 0.539971 -0.000477605
95 2 0.806124 9.77373 22.7898 30321 30323.1 -80091 0.000216011 0.364839 -6.58473e-05
96 2 4.03062 9.77373 25.0691 -205035 -205033 12175.2 0.00241983 0.0959614 0.000509676
97 2 0 11.17 0 -205474 -205472 10193.3 -0.000107826 0.269355 -0.000107688
98 2 3.2245 11.17 2.27913 29880 29882.2 -82083.7 0.000105401 0.3681 0.00011913
99 2 1.61225 11.17 4.55799 42639.6 42641.7 11172.9 1.02718e-06 0.367862 0.000372317
100 2 2.41837 12.5662 0 -205474 -205472 10193.3 6.25281e-05 0.270409 2.06805e-05
101 2 0.806124 12.5662 2.27913 29880 29882.2 -82083.7 -4.24116e-05 0.367567 0.000131326
102 2 4.03062 12.5662 4.55799 42639.6 42641.7 11172.9 -0.000120598 0.367343 -8.95812e-05
103 2 5.50212e-13 11.17 6.83699 43278.9 43281.2 15691.2 0.000308874 0.541141 -0.000152351
104 2 3.2245 11.17 9.11598 43284.3 43286.4 15716.8 2.31265e-05 0.367929 -0.000155162
105 2 1.61225 11.17 11.395 43284.2 43286.4 15716 -1.08094e-05 0.367764 7.91467e-05
106 2 2.41837 12.5662 6.83699 43278.9 43281.2 15691.2 -0.000142038 0.539783 -0.000341283
107 2 0.806124 12.5662 9.11598 43284.3 43286.4 15716.8 -0.000111461 0.36753 -0.000182785
108 2 4.03062 12.5662 11.395 43284.2 43286.3 15716 0.000613775 0.368997 0.00022224
109 2 -1.07475e-12 11.17 13.674 43283.9 43286.2 15715 -2.20427e-05 0.540326 6.50198e-05
110 2 3.2245 11.17 15.953 43284.3 43286.4 15716.8 -0.00162201 0.365688 -0.00057286
111 2 1.61225 11.17 18.232 43279.1 43281.3 15691.6 4.29174e-05 0.367865 -0.000883269
112 2 2.41837 12.5662 13.674 43283.9 43286.2 15715 -0.000184113 0.539789 0.00044763
113 2 0.806124 12.5662 15.953 43284.3 43286.4 15716.8 0.00132045 0.369691 -0.000589224
114 2 4.03062 12.5662 18.232 43279.2 43281.3 15691.6 -8.84683e-05 0.368263 0.000482833
115 2 2.58892e-12 11.17 20.511 42636.9 42639.2 11160.7 0.00019382 0.539868 0.000144191
116 2 3.2245 11.17 22.7898 30321 30323.1 -80091 0.000603527 0.365579 0.000247872
117 2 1.61225 11.17 25.0691 -205035 -205033 12175.2 -1.8294e-05 0.0946274 0.000651519
118 2 2.41837 12.5662 20.511 42636.9 42639.2 11160.7 0.000318058 0.541139 -0.000174025
119 2 0.806124 12.5662 22.7898 30321 30323.1 -80091 -0.000513646 0.364542 0.000101064
120 2 4.03062 12.5662 25.0691 -205035 -205033 12175.2 0.00631029 0.0936604 -0.000753483
121 2 0 13.9625 0 -205474 -205472 10193.3 -0.00015852 0.269063 0.000253474
122 2 3.2245 13.9625 2.27913 29880 29882.2 -82083.7 3.72712e-05 0.368065 0.000122685
123 2 1.61225 13.9625 4.55799 42639.6 42641.7 11172.9 5.61184e-06 0.367872 -3.51714e-06
124 2 2.41837 15.3587 0 -205474 -205472 10193.3 8.52947e-05 0.270501 0.000323147
125 2 0.806124 15.3587 2.27913 29880 29882.2 -82083.7 -1.15706e-05 0.367616 0.000150088
126 2 4.03062 15.3587 4.55799 42639.6 42641.7 11172.9 -0.000238418 0.367017 -0.000192784
127 2 5.24576e-13 13.9625 6.83699 43278.9 43281.2 15691.2 0.000171808 0.540947 -0.000340986
128 2 3.2245 13.9625 9.11598 43284.3 43286.4 15716.8 0.000308658 0.368596 4.87385e-05
129 2 1.61225 13.9625 11.395 43284.2 43286.3 15716 1.66492e-06 0.367772 0.000549937
130 2 2.41837 15.3587 6.83699 43278.9 43281.2 15691.2 -7.13741e-05 0.539971 -0.000414186
131 2 0.806124 15.3587 9.11598 43284.3 43286.4 15716.8 -0.000179689 0.367186 6.95468e-06
132 2 4.03062 15.3587 11.395 43284.2 43286.3 15716 1.58293e-05 0.36763 -0.000138299
133 2 1.29745e-12 13.9625 13.674 43283.9 43286.2 15715 0.00110262 0.542691 -0.000391007
134 2 3.2245 13.9625 15.953 43284.3 43286.4 15716.8 -0.00174322 0.365152 -0.000762152
135 2 1.61225 13.9625 18.232 43279.2 43281.3 15691.6 -3.50071e-05 0.367819 -0.00104553
136 2 2.41837 15.3587 13.674 43283.9 43286.2 15715 -0.000686117 0.538362 -0.000106739
137 2 0.806124 15.3587 15.953 43284.3 43286.4 15716.8 0.000973603 0.369668 -0.000935868
138 2 4.03062 15.3587 18.232 43279.2 43281.3 15691.7 0.00212503 0.371872 0.00130116
139 2 -2.12184e-12 13.9625 20.511 42636.9 42639.2 11160.7 -0.00223413 0.537558 0.000666145
140 2 3.2245 13.9625 22.7898 30321 30323.1 -80091 0.00163199 0.365927 0.000329184
141 2 1.61225 13.9625 25.0691 -205035 -205033 12175.2 -3.49694e-05 0.0946476 0.000694198
142 2 2.41837 15.3587 20.511 42636.9 42639.2 11160.7 0.00113478 0.541986 0.000313165
143 2 0.806124 15.3587 22.7898 30321 30323.1 -80091 -0.000514094 0.364537 0.000142195
144 2 4.03062 15.3587 25.0691 -205035 -205033 12175.2 0.00254673 0.0886792 -0.001848
145 2 0 16.755 0 -205474 -205472 10193.3 -0.000182838 0.268983 0.000350446
146 2 3.2245 16.755 2.27913 29880 29882.2 -82083.7 6.15699e-06 0.36795 0.00011899
147 2 1.61225 16.755 4.55799 42639.6 42641.7 11172.9 5.66305e-06 0.367877 -5.60742e-05
148 2 2.41837 18.1512 0 -205474 -205472 10193.3 7.32409e-05 0.270519 0.000280708
149 2 0.806124 18.1512 2.27913 29880 29882.2 -82083.7 -3.09479e-06 0.367683 0.000118409
150 2 4.03062 18.1512 4.55799 42639.6 42641.7 11172.9 -0.000157495 0.366886 -7.65217e-05
151 2 3.03174e-13 16.755 6.83699 43278.9 43281.2 15691.2 6.49819e-05 0.540486 -0.000209814
152 2 3.2245 16.755 9.11598 43284.3 43286.4 15716.8 0.000262793 0.369026 0.00010978
153 2 1.61225 16.755 11.395 43284.2 43286.3 15716 1.77973e-05 0.367817 0.000453245
154 2 2.41837 18.1512 6.83699 43278.9 43281.2 15691.2 -2.57827e-05 0.540181 -0.000190718
155 2 0.806124 18.1512 9.11598 43284.3 43286.4 15716.8 -0.000100238 0.367027 6.27108e-05
156 2 4.03062 18.1512 11.395 43284.2 43286.3 15716 -0.000304809 0.36606 -0.00028624
157 2 4.28292e-12 16.755 13.674 43283.9 43286.2 15715 0.00122155 0.544411 -0.000596388
158 2 3.2245 16.755 15.953 43284.3 43286.4 15716.8 -0.000624445 0.366671 -0.00035804
159 2 1.61225 16.755 18.232 43279.2 43281.3 15691.6 -6.24689e-05 0.367696 -0.000374317
160 2 2.41837 18.1512 13.674 43283.9 43286.2 15715 -0.000562208 0.537494 -0.000390706
161 2 0.806124 18.1512 15.953 43284.3 43286.4 15716.8 0.000275526 0.368589 -0.000548097
162 2 4.03062 18.1512 18.232 43279.2 43281.3 15691.6 0.00228369 0.375704 0.00113454
163 2 -8.92702e-12 16.755 20.511 42636.9 42639.2 11160.7 -0.00271248 0.535715 0.000692058
164 2 3.2245 16.755 22.7898 30321 30323.1 -80091 0.00169654 0.365542 0.000161588
165 2 1.61225 16.755 25.0691 -205035 -205033 12175.2 -1.44393e-05 0.0945923 0.000254632
166 2 2.41837 18.1512 20.511 42636.9 42639.2 11160.7 0.000802389 0.542277 0.000313771
167 2 0.806124 18.1512 22.7898 30321 30323.1 -80091 -0.000340057 0.36467 0.000119955
168 2 4.03062 18.1512 25.0691 -205035 -205033 12175.2 -0.00171658 0.0857784 -0.00119177
169 2 0 19.5475 0 -205474 -205472 10193.3 -8.89107e-05 0.268984 0.000154496
170 2 3.2245 19.5475 2.27913 29880 29882.2 -82083.7 1.93763e-06 0.367859 5.56174e-05
171 2 1.61225 19.5475 4.55799 42639.6 42641.7 11172.9 2.1794e-06 0.367879 -2.39507e-06
172 2 2.41837 20.9437 0 -205474 -205472 10193.3 -1.08099e-08 0.270519 -2.48172e-08
173 2 0.806124 20.9437 2.27913 29880 29882.2 -82083.7 -5.16136e-09 0.367713 1.11144e-09
174 2 4.03062 20.9437 4.55799 42639.6 42641.7 11172.9 3.44484e-09 0.366852 -5.44846e-10
175 2 9.15605e-14 19.5475 6.83699 43278.9 43281.2 15691.2 1.57167e-05 0.540183 -4.70366e-05
176 2 3.2245 19.5475 9.11598 43284.3 43286.4 15716.8 8.38698e-05 0.36914 5.09295e-05
177 2 1.61225 19.5475 11.395 43284.2 43286.3 15716 1.11588e-05 0.367861 0.000137633
178 2 2.41837 20.9437 6.83699 43278.9 43281.2 15691.2 -1.24847e-09 0.540259 4.09559e-09
179 2 0.806124 20.9437 9.11598 43284.3 43286.4 15716.8 -3.20886e-09 0.367 -1.4219e-09
180 2 4.03062 20.9437 11.395 43284.2 43286.3 15716 1.88772e-09 0.365463 3.67104e-09
181 2 5.80311e-12 19.5475 13.674 43283.9 43286.2 15715 0.00047333 0.544766 -0.000266006
182 2 3.2245 19.5475 15.953 43284.3 43286.4 15716.8 -6.57318e-05 0.367996 -7.40845e-05
183 2 1.61225 19.5475 18.232 43279.2 43281.3 15691.7 -2.45661e-05 0.367617 -5.39138e-05
184 2 2.41837 20.9437 13.674 43283.9 43286.2 15715 4.28939e-09 0.537305 2.45297e-09
185 2 0.806124 20.9437 15.953 43284.3 43286.4 15716.8 -1.96467e-09 0.368047 -1.45029e-09
186 2 4.03062 20.9437 18.232 43279.2 43281.3 15691.6 -2.04668e-09 0.377333 2.06919e-09
187 2 -1.39451e-11 19.5475 20.511 42636.9 42639.2 11160.7 -0.00113524 0.535078 0.000254023
188 2 3.2245 19.5475 22.7898 30321 30323.1 -80091 0.000587516 0.364504 -1.20502e-07
189 2 1.61225 19.5475 25.0691 -205035 -205033 12175.2 -2.779e-06 0.0944995 1.39719e-05
190 2 2.41837 20.9437 20.511 42636.9 42639.2 11160.7 1.20061e-09 0.54236 2.12532e-09
191 2 0.806124 20.9437 22.7898 30321 30323.1 -80091 -3.42357e-10 0.36482 4.90637e-09
192 2 4.03062 20.9437 25.0691 -205035 -205033 12175.2 1.17774e-08 0.0854294 1.91698e-08
193 2 0 22.34 0 -205474 -205472 10193.3 8.89166e-05 0.268984 -0.000154467
194 2 3.2245 22.34 2.27913 29880 29882.2 -82083.7 -1.94781e-06 0.367859 -5.56222e-05
195 2 1.61225 22.34 4.55799 42639.6 42641.7 11172.9 -2.17947e-06 0.367879 2.39724e-06
196 2 2.41837 23.7362 0 -205474 -205472 10193.3 -7.32472e-05 0.270519 -0.000280724
197 2 0.806124 23.7362 2.27913 29880 29882.2 -82083.7 3.09918e-06 0.367683 -0.000118406
198 2 4.03062 23.7362 4.55799 42639.6 42641.7 11172.9 0.000157488 0.366886 7.65214e-05
199 2 9.15447e-14 22.34 6.83699 43278.9 43281.2 15691.2 -1.57103e-05 0.540183 4.70341e-05
200 2 3.2245 22.34 9.11598 43284.3 43286.4 15716.8 -8.38694e-05 0.36914 -5.09207e-05
201 2 1.61225 22.34 11.395 43284.2 43286.3 15716 -1.11578e-05 0.367861 -0.000137636
202 2 2.41837 23.7362 6.83699 43278.9 43281.2 15691.2 2.57836e-05 0.540181 0.000190718
203 2 0.806124 23.7362 9.11598 43284.3 43286.4 15716.8 0.000100241 0.367027 -6.27122e-05
204 2 4.03062 23.7362 11.395 43284.2 43286.3 15716 0.00030481 0.36606 0.000286237
205 2 5.80308e-12 22.34 13.674 43283.9 43286.2 15715 -0.000473317 0.544766 0.000266007
206 2 3.2245 22.34 15.953 43284.3 43286.4 15716.8 6.57294e-05 0.367996 7.40778e-05
207 2 1.61225 22.34 18.232 43279.2 43281.3 15691.7 2.45654e-05 0.367617 5.39138e-05
208 2 2.41837 23.7362 13.674 43283.9 43286.2 15715 0.000562207 0.537494 0.000390703
209 2 0.806124 23.7362 15.953 43284.3 43286.4 15716.8 -0.000275525 0.368589 0.000548097
210 2 4.03062 23.7362 18.232 43279.2 43281.3 15691.6 -0.00228369 0.375704 -0.00113454
211 2 -1.39451e-11 22.34 20.511 42636.9 42639.2 11160.7 0.00113524 0.535078 -0.000254018
212 2 3.2245 22.34 22.7898 30321 30323.1 -80091 -0.000587512 0.364504 1.22257e-07
213 2 1.61225 22.34 25.0691 -205035 -205033 12175.2 2.7713e-06 0.0944995 -1.39981e-05
214 2 2.41837 23.7362 20.511 42636.9 42639.2 11160.7 -0.000802395 0.542277 -0.000313771
215 2 0.806124 23.7362 22.7898 30321 30323.1 -80091 0.000340057 0.36467 -0.000119953
216 2 4.03062 23.7362 25.0691 -205035 -205033 12175.2 0.00171659 0.0857784 0.00119179
217 2 0 25.1325 0 -205474 -205472 10193.3 0.000182829 0.268983 -0.000350439
218 2 3.2245 25.1325 2.27913 29880 29882.2 -82083.7 -6.17274e-06 0.36795 -0.000118986
219 2 1.61225 25.1325 4.55799 42639.6 42641.7 11172.9 -5.67201e-06 0.367877 5.60682e-05
220 2 2.41837 26.5287 0 -205474 -205472 10193.3 -8.52914e-05 0.270501 -0.000323148
221 2 0.806124 26.5287 2.27913 29880 29882.2 -82083.7 1.15603e-05 0.367616 -0.000150095
222 2 4.03062 26.5287 4.55799 42639.6 42641.7 11172.9 0.000238431 0.367017 0.00019279
223 2 3.03167e-13 25.1325 6.83699 43278.9 43281.2 15691.2 -6.49787e-05 0.540486 0.000209814
224 2 3.2245 25.1325 9.11598 43284.3 43286.4 15716.8 -0.000262794 0.369025 -0.000109775
225 2 1.61225 25.1325 11.395 43284.2 43286.3 15716 -1.77954e-05 0.367817 -0.000453245
226 2 2.41837 26.5287 6.83699 43278.9 43281.2 15691.2 7.13734e-05 0.539971 0.000414184
227 2 0.806124 26.5287 9.11598 43284.3 43286.4 15716.8 0.000179684 0.367186 -6.9555e-06
228 2 4.03062 26.5287 11.395 43284.2 43286.3 15716 -1.58378e-05 0.36763 0.000138305
229 2 4.28291e-12 25.1325 13.674 43283.9 43286.2 15715 -0.00122156 0.544411 0.000596397
230 2 3.2245 25.1325 15.953 43284.3 43286.4 15716.8 0.000624448 0.366671 0.00035804
231 2 1.61225 25.1325 18.232 43279.2 43281.3 15691.6 6.2466e-05 0.367696 0.000374317
232 2 2.41837 26.5287 13.674 43283.9 43286.2 15715 0.000686114 0.538362 0.000106736
233 2 0.806124 26.5287 15.953 43284.3 43286.4 15716.8 -0.0009736 0.369668 0.000935875
234 2 4.03062 26.5287 18.232 43279.2 43281.3 15691.7 -0.00212504 0.371872 -0.00130117
235 2 -8.92703e-12 25.1325 20.511 42636.9 42639.2 11160.7 0.00271247 0.535715 -0.000692055
236 2 3.2245 25.1325 22.7898 30321 30323.1 -80091 -0.00169653 0.365542 -0.000161589
237 2 1.61225 25.1325 25.0691 -205035 -205033 12175.2 1.44349e-05 0.0945923 -0.00025464
238 2 2.41837 26.5287 20.511 42636.9 42639.2 11160.7 -0.00113478 0.541986 -0.000313156
239 2 0.806124 26.5287 22.7898 30321 30323.1 -80091 0.000514092 0.364537 -0.0001422
240 2 4.03062 26.5287 25.0691 -205035 -205033 12175.2 -0.00254672 0.0886792 0.001848
241 2 0 27.925 0 -205474 -205472 10193.3 0.00015852 0.269063 -0.000253465
242 2 3.2245 27.925 2.27913 29880 29882.2 -82083.7 -3.72781e-05 0.368065 -0.000122687
243 2 1.61225 27.925 4.55799 42639.6 42641.7 11172.9 -5.61397e-06 0.367872 3.5103e-06
244 2 2.41837 29.3212 0 -205474 -205472 10193.3 -6.25321e-05 0.270409 -2.06946e-05
245 2 0.806124 29.3212 2.27913 29880 29882.2 -82083.7 4.23985e-05 0.367567 -0.000131327
246 2 4.03062 29.3212 4.55799 42639.6 42641.7 11172.9 0.000120608 0.367343 8.9581e-05
247 2 5.24557e-13 27.925 6.83699 43278.9 43281.2 15691.2 -0.000171806 0.540947 0.000340992
248 2 3.2245 27.925 9.11598 43284.3 43286.4 15716.8 -0.00030867 0.368596 -4.87451e-05
249 2 1.61225 27.925 11.395 43284.2 43286.3 15716 -1.66648e-06 0.367772 -0.000549941
250 2 2.41837 29.3212 6.83699 43278.9 43281.2 15691.2 0.000142043 0.539783 0.000341284
251 2 0.806124 29.3212 9.11598 43284.3 43286.4 15716.8 0.000111459 0.36753 0.000182793
252 2 4.03062 29.3212 11.395 43284.2 43286.3 15716 -0.000613775 0.368997 -0.000222221
253 2 1.29742e-12 27.925 13.674 43283.9 43286.2 15715 -0.00110262 0.542691 0.000391001
254 2 3.2245 27.925 15.953 43284.3 43286.4 15716.8 0.00174322 0.365152 0.000762158
255 2 1.61225 27.925 18.232 43279.2 43281.3 15691.6 3.50084e-05 0.367819 0.00104553
256 2 2.41837 29.3212 13.674 43283.9 43286.2 15715 0.000184113 0.539789 -0.000447642
257 2 0.806124 29.3212 15.953 43284.3 43286.4 15716.8 -0.00132046 0.369691 0.000589232
258 2 4.03062 29.3212 18.232 43279.2 43281.3 15691.6 8.84579e-05 0.368263 -0.000482839
259 2 -2.12185e-12 27.925 20.511 42636.9 42639.2 11160.7 0.00223413 0.537558 -0.000666155
260 2 3.2245 27.925 22.7898 30321 30323.1 -80091 -0.00163199 0.365927 -0.000329187
261 2 1.61225 27.925 25.0691 -205035 -205033 12175.2 3.49728e-05 0.0946476 -0.000694207
262 2 2.41837 29.3212 20.511 42636.9 42639.2 11160.7 -0.00031807 0.541139 0.00017402
263 2 0.806124 29.3212 22.7898 30321 30323.1 -80091 0.000513628 0.364542 -0.00010107
264 2 4.03062 29.3212 25.0691 -205035 -205033 12175.2 -0.00631028 0.0936604 0.000753484
265 2 0 30.7174 0 -205474 -205472 10193.3 0.000107827 0.269355 0.000107702
266 2 3.2245 30.7174 2.27913 29880 29882.2 -82083.7 -0.00010541 0.3681 -0.000119134
267 2 1.61225 30.7174 4.55799 42639.6 42641.7 11172.9 -1.02021e-06 0.367862 -0.000372323
268 2 2.41837 32.1137 0 -205474 -205472 10193.3 -2.91044e-05 0.270202 0.000421168
269 2 0.806124 32.1137 2.27913 29880 29882.2 -82083.7 7.23961e-05 0.367586 -8.41229e-05
270 2 4.03062 32.1137 4.55799 42639.6 42641.7 11172.9 -0.000152061 0.367886 -0.000270319
271 2 5.50193e-13 30.7174 6.83699 43278.9 43281.2 15691.2 -0.000308876 0.541141 0.000152362
272 2 3.2245 30.7174 9.11598 43284.3 43286.4 15716.8 -2.31141e-05 0.367929 0.000155172
273 2 1.61225 30.7174 11.395 43284.2 43286.4 15716 1.08158e-05 0.367764 -7.91338e-05
274 2 2.41837 32.1137 6.83699 43278.9 43281.2 15691.2 0.000175146 0.539854 -0.00017036
275 2 0.806124 32.1137 9.11598 43284.3 43286.4 15716.8 -0.000122911 0.367912 0.000370759
276 2 4.03062 32.1137 11.395 43284.2 43286.3 15716 -0.000584646 0.368912 -0.000155214
277 2 -1.07476e-12 30.7174 13.674 43283.9 43286.2 15715 2.20457e-05 0.540326 -6.50251e-05
278 2 3.2245 30.7174 15.953 43284.3 43286.4 15716.8 0.00162201 0.365688 0.000572855
279 2 1.61225 30.7174 18.232 43279.1 43281.3 15691.6 -4.29132e-05 0.367865 0.000883284
280 2 2.41837 32.1137 13.674 43283.9 43286.2 15715 -0.000356079 0.540647 -0.000323688
281 2 0.806124 32.1137 15.953 43284.3 43286.4 15716.8 -0.000375085 0.368356 -0.000276972
282 2 4.03062 32.1137 18.232 43279.2 43281.3 15691.6 0.00209021 0.366156 0.000530304
283 2 2.5889e-12 30.7174 20.511 42636.9 42639.2 11160.7 -0.000193822 0.539868 -0.000144186
284 2 3.2245 30.7174 22.7898 30321 30323.1 -80091 -0.000603524 0.365579 -0.000247876
285 2 1.61225 30.7174 25.0691 -205035 -205033 12175.2 1.82888e-05 0.0946274 -0.000651529
286 2 2.41837 32.1137 20.511 42636.9 42639.2 11160.7 0.00110579 0.539971 0.000477594
287 2 0.806124 32.1137 22.7898 30321 30323.1 -80091 -0.000216011 0.364839 6.58648e-05
288 2 4.03062 32.1137 25.0691 -205035 -205033 12175.2 -0.00241982 0.0959614 -0.000509648
289 2 0 33.5099 0 -205474 -205472 10193.3 -1.04012e-06 0.269837 0.000462905
290 2 3.2245 33.5099 2.27913 29880 29882.2 -82083.7 -0.000123421 0.368006 -5.27016e-05
291 2 1.61225 33.5099 4.55799 42639.6 42641.7 11172.9 4.0361e-06 0.367852 -0.00061961
292 2 2.41837 34.9062 0 -205474 -205472 10193.3 6.03432e-05 0.26996 0.000658478
293 2 0.806124 34.9062 2.27913 29880 29882.2 -82083.7 4.99198e-05 0.367665 5.95986e-05
294 2 4.03062 34.9062 4.55799 42639.6 42641.7 11172.9 -0.000337185 0.368334 -0.000397335
295 2 3.9217e-13 33.5099 6.83699 43278.9 43281.2 15691.2 -0.0002679 0.540745 -0.000288144
296 2 3.2245 33.5099 9.11598 43284.3 43286.4 15716.8 0.000375769 0.367408 0.000297241
297 2 1.61225 33.5099 11.395 43284.2 43286.3 15716 6.7355e-06 0.367786 0.000617729
298 2 2.41837 34.9062 6.83699 43278.9 43281.2 15691.2 5.55948e-05 0.540179 -0.000641749
299 2 0.806124 34.9062 9.11598 43284.3 43286.4 15716.8 -0.000244897 0.368069 0.000185386
300 2 4.03062 34.9062 11.395 43284.2 43286.3 15716 1.1192e-05 0.367832 0.000216889
301 2 -1.14698e-12 33.5099 13.674 43283.9 43286.2 15715 0.000759216 0.539483 -7.50776e-05
302 2 3.2245 33.5099 15.953 43284.3 43286.4 15716.8 -0.000152346 0.367614 -0.000162846
303 2 1.61225 33.5099 18.232 43279.2 43281.3 15691.6 -2.5219e-05 0.367815 -0.000423727
304 2 2.41837 34.9062 13.674 43283.9 43286.2 15715 -0.000336408 0.540541 0.000229811
305 2 0.806124 34.9062 15.953 43284.3 43286.4 15716.8 0.000416869 0.367556 -0.000413774
306 2 4.03062 34.9062 18.232 43279.2 43281.3 15691.6 0.000588454 0.367122 0.000214358
307 2 2.34087e-12 33.5099 20.511 42636.9 42639.2 11160.7 -0.00171902 0.541211 0.000176439
308 2 3.2245 33.5099 22.7898 30321 30323.1 -80091 0.000649516 0.365014 1.21039e-05
309 2 1.61225 33.5099 25.0691 -205035 -205033 12175.2 -4.05983e-05 0.0946264 0.000160297
310 2 2.41837 34.9062 20.511 42636.9 42639.2 11160.7 0.000579927 0.540032 -0.000161955
311 2 0.806124 34.9062 22.7898 30321 30323.1 -80091 -0.000461548 0.365113 8.95821e-05
312 2 4.03062 34.9062 25.0691 -205035 -205033 12175.2 0.00169815 0.0952385 -0.000243969
313 2 0 36.3024 0 -205474 -205472 10193.3 -0.00024554 0.27024 0.000597032
314 2 3.2245 36.3024 2.27913 29880 29882.2 -82083.7 -3.98817e-05 0.367849 0.000130135
315 2 1.61225 36.3024 4.55799 42639.6 42641.7 11172.9 5.28423e-06 0.36785 -0.000244894
316 2 2.41837 37.6987 0 -205474 -205472 10193.3 0.000187069 0.26983 0.000597249
317 2 0.806124 37.6987 2.27913 29880 29882.2 -82083.7 -8.48075e-06 0.367753 0.000253192
318 2 4.03062 37.6987 4.55799 42639.6 42641.7 11172.9 -0.000311011 0.368275 -9.96637e-05
319 2 2.14056e-13 36.3024 6.83699 43278.9 43281.2 15691.2 0.000104703 0.540115 -0.000574228
320 2 3.2245 36.3024 9.11598 43284.3 43286.4 15716.8 0.000276111 0.367424 -4.18847e-05
321 2 1.61225 36.3024 11.395 43284.2 43286.3 15716 -2.42192e-06 0.367806 0.000571046
322 2 2.41837 37.6987 6.83699 43278.9 43281.2 15691.2 -0.000161781 0.540417 -0.000613905
323 2 0.806124 37.6987 9.11598 43284.3 43286.4 15716.8 -1.55867e-06 0.367889 -0.000443139
324 2 4.03062 37.6987 11.395 43284.2 43286.3 15716 0.000304319 0.367244 0.000196829
325 2 -1.62217e-13 36.3024 13.674 43283.9 43286.2 15715 0.000311705 0.540101 0.000201986
326 2 3.2245 36.3024 15.953 43284.3 43286.4 15716.8 -0.000656558 0.368183 -0.000253063
327 2 1.61225 36.3024 18.232 43279.2 43281.3 15691.6 1.15371e-05 0.367781 -0.000628179
328 2 2.41837 37.6987 13.674 43283.9 43286.2 15715 6.43432e-05 0.540169 0.000350621
329 2 0.806124 37.6987 15.953 43284.3 43286.4 15716.8 0.000146523 0.367653 2.64362e-05
330 2 4.03062 37.6987 18.232 43279.2 43281.3 15691.6 -0.000529689 0.368233 -0.000282334
331 2 -3.09049e-13 36.3024 20.511 42636.9 42639.2 11160.7 -0.000238523 0.540572 -0.000139205
332 2 3.2245 36.3024 22.7898 30321 30323.1 -80091 0.000398343 0.364858 8.59417e-05
333 2 1.61225 36.3024 25.0691 -205035 -205033 12175.2 -1.48891e-05 0.0946586 0.000529127
334 2 2.41837 37.6987 20.511 42636.9 42639.2 11160.7 -0.000187036 0.540482 -0.000284084
335 2 0.806124 37.6987 22.7898 30321 30323.1 -80091 1.76705e-05 0.365013 -1.56798e-05
336 2 4.03062 37.6987 25.0691 -205035 -205033 12175.2 0.000685203 0.0944229 0.000347598
337 2 0 39.0949 0 -205474 -205472 10193.3 -0.000427011 0.270346 0.000496306
338 2 3.2245 39.0949 2.27913 29880 29882.2 -82083.7 5.48724e-05 0.367697 0.000279588
339 2 1.61225 39.0949 4.55799 42639.6 42641.7 11172.9 3.51097e-06 0.367856 0.000288841
340 2 2.41837 40.4912 0 -205474 -205472 10193.3 0.000192297 0.269843 0.00034652
341 2 0.806124 40.4912 2.27913 29880 29882.2 -82083.7 -3.73577e-05 0.367828 0.000282545
342 2 4.03062 40.4912 4.55799 42639.6 42641.7 11172.9 -0.000162404 0.367808 0.000135721
343 2 6.33991e-14 39.0949 6.83699 43278.9 43281.2 15691.2 0.00042903 0.53993 -0.00047674
344 2 3.2245 39.0949 9.11598 43284.3 43286.4 15716.8 -0.00022914 0.367834 -0.000546639
345 2 1.61225 39.0949 11.395 43284.2 43286.3 15716 1.36425e-07 0.367799 -0.000289058