ITEM: TIMESTEP
0
ITEM: NUMBER OF ATOMS
3074
ITEM: BOX BOUNDS pp pp pp
0.0000000000000000e+00 3.8693948398131120e+01
0.0000000000000000e+00 4.4679925159782847e+01
0.0000000000000000e+00 6.0000000000000000e+01
ITEM: ATOMS id type x y z c_peratom[1] c_peratom[2] c_peratom[3] c_peratom[4] c_peratom[5] c_peratom[6]
1 2 0 0 0 -205991 -205989 7857.41 -0.000147816 0.271867 0.000171178
2 2 3.2245 0 2.279 29869.7 29871.8 -82132 -7.62151e-06 0.366007 8.27526e-05
3 2 1.61225 0 4.55799 43157 43159.1 13509.7 1.96856e-06 0.365914 3.39686e-05
4 2 2.41837 1.39625 0 -205991 -205989 7857.41 0.000118723 0.272037 0.000320918
5 2 0.806124 1.39625 2.279 29869.7 29871.8 -82132 7.3301e-06 0.36594 0.000159681
6 2 4.03062 1.39625 4.55799 43157 43159.1 13509.7 -0.000195774 0.365892 2.88764e-05
7 2 0 0 6.83699 43283.9 43286.2 15713.4 6.41589e-05 0.544138 -0.000132363
8 2 3.2245 0 9.11598 43284.2 43286.4 15716 5.79798e-05 0.365835 -9.37067e-05
9 2 1.61225 0 11.395 43284.2 43286.4 15716 -3.27258e-06 0.36591 9.94533e-06
10 2 2.41837 1.39625 6.83699 43283.9 43286.2 15713.4 -4.46536e-05 0.543997 -0.000242315
11 2 0.806124 1.39625 9.11598 43284.2 43286.4 15716 -4.41302e-05 0.365917 -0.000183914
12 2 4.03062 1.39625 11.395 43284.2 43286.4 15716 9.35456e-05 0.365831 -0.000100274
13 2 0 0 13.674 43283.9 43286.2 15714.8 1.98946e-05 0.543994 1.21979e-05
14 2 3.2245 0 15.953 43284.2 43286.4 15716 -0.000102465 0.365912 -8.86333e-06
15 2 1.61225 0 18.232 43284.2 43286.3 15714.5 9.98313e-06 0.365916 -4.5747e-05
16 2 2.41837 1.39625 13.674 43283.9 43286.2 15714.8 -2.98454e-05 0.54397 2.2135e-05
17 2 0.806124 1.39625 15.953 43284.2 43286.4 15716 6.54878e-05 0.365928 -5.426e-06
18 2 4.03062 1.39625 18.232 43284.2 43286.3 15714.5 0.000125667 0.366053 0.000134418
19 2 0 0 20.511 43156.6 43158.9 13508.6 -1.89119e-05 0.543984 1.92196e-05
20 2 3.2245 0 22.79 29869.7 29871.8 -82132 5.85634e-05 0.365993 1.98002e-05
21 2 1.61225 0 25.069 -205991 -205989 7858.55 2.01594e-06 0.0938751 6.84403e-05
22 2 2.41837 1.39625 20.511 43156.6 43158.9 13508.6 9.48102e-05 0.544062 4.27603e-05
23 2 0.806124 1.39625 22.79 29869.7 29871.8 -82132 -7.06576e-05 0.365958 3.01303e-05
24 2 4.03062 1.39625 25.069 -205991 -205989 7858.55 0.000428243 0.0938196 -5.8194e-05
25 2 0 2.7925 0 -205991 -205989 7857.41 -0.000252314 0.272041 0.000282299
26 2 3.2245 2.7925 2.279 29869.7 29871.8 -82132 -1.6002e-05 0.365895 0.000137644
27 2 1.61225 2.7925 4.55799 43157 43159.1 13509.7 2.46897e-06 0.365915 7.80791e-05
28 2 2.41837 4.18874 0 -205991 -205989 7857.4 8.45501e-05 0.271932 0.000240071
29 2 0.806124 4.18874 2.279 29869.7 29871.8 -82132 8.9196e-06 0.366004 0.000108676
30 2 4.03062 4.18874 4.55799 43157 43159.1 13509.7 -9.23718e-05 0.365856 8.97612e-05
31 2 0 2.7925 6.83699 43283.9 43286.2 15713.4 7.50955e-05 0.543935 -0.000147682
32 2 3.2245 2.7925 9.11598 43284.2 43286.4 15716 2.43303e-05 0.36594 -0.000184255
33 2 1.61225 2.7925 11.395 43284.2 43286.4 15716 -1.16354e-06 0.365916 -0.000133432
34 2 2.41837 4.18874 6.83699 43283.9 43286.2 15713.4 -1.09193e-05 0.544076 -6.28952e-05
35 2 0.806124 4.18874 9.11598 43284.2 43286.4 15716 3.33054e-05 0.365903 -0.000154866
36 2 4.03062 4.18874 11.395 43284.2 43286.4 15716 -0.000142117 0.365779 -0.00022425
37 2 0 2.7925 13.674 43283.9 43286.2 15714.8 4.67653e-05 0.544121 -7.31803e-05
38 2 3.2245 2.7925 15.953 43284.2 43286.4 15716 0.000109191 0.365983 6.74387e-05
39 2 1.61225 2.7925 18.232 43284.2 43286.3 15714.5 1.17467e-06 0.365909 0.00011086
40 2 2.41837 4.18874 13.674 43283.9 43286.2 15714.8 1.28155e-05 0.544011 -0.000165173
41 2 0.806124 4.18874 15.953 43284.2 43286.4 15716 -0.000205594 0.365788 9.42025e-05
42 2 4.03062 4.18874 18.232 43284.2 43286.3 15714.5 0.000670241 0.36617 0.000254359
43 2 0 2.7925 20.511 43156.6 43158.9 13508.6 -0.00038127 0.543881 0.000133991
44 2 3.2245 2.7925 22.79 29869.7 29871.8 -82132 0.000152683 0.365973 2.24413e-05
45 2 1.61225 2.7925 25.069 -205991 -205989 7858.55 -1.65851e-05 0.0938875 -7.82884e-06
46 2 2.41837 4.18874 20.511 43156.6 43158.9 13508.6 0.000201842 0.544036 0.00021619
47 2 0.806124 4.18874 22.79 29869.7 29871.8 -82132 -3.29419e-05 0.366016 1.55228e-05
48 2 4.03062 4.18874 25.069 -205991 -205989 7858.55 -0.000568993 0.0936338 -0.000185242
49 2 0 5.58499 0 -205991 -205989 7857.4 -4.07932e-05 0.272238 4.59708e-05
50 2 3.2245 5.58499 2.279 29869.7 29871.8 -82132 -1.27804e-05 0.365827 2.19582e-05
51 2 1.61225 5.58499 4.55799 43157 43159.1 13509.7 -2.59925e-07 0.365915 5.37958e-05
52 2 2.41837 6.98124 0 -205991 -205989 7857.4 -5.20051e-05 0.27186 -8.4075e-05
53 2 0.806124 6.98124 2.279 29869.7 29871.8 -82132 4.81203e-06 0.366005 -6.08973e-05
54 2 4.03062 6.98124 4.55799 43157 43159.1 13509.7 8.06244e-05 0.365894 4.50492e-05
55 2 0 5.58499 6.83699 43283.9 43286.2 15713.4 6.40231e-06 0.543903 2.53681e-05
56 2 3.2245 5.58499 9.11598 43284.2 43286.4 15716 -0.000145126 0.365852 -0.000162019
57 2 1.61225 5.58499 11.395 43284.2 43286.4 15716 1.0637e-06 0.365922 -0.000320831
58 2 2.41837 6.98124 6.83699 43283.9 43286.2 15713.4 2.4741e-06 0.544016 0.000101075
59 2 0.806124 6.98124 9.11598 43284.2 43286.4 15716 0.000101449 0.365998 -0.000121224
60 2 4.03062 6.98124 11.395 43284.2 43286.4 15716 0.000115073 0.366202 9.07208e-05
61 2 0 5.58499 13.674 43283.9 43286.2 15714.8 -0.000282671 0.54373 6.05633e-05
62 2 3.2245 5.58499 15.953 43284.2 43286.4 15716 0.000548678 0.366261 0.000294277
63 2 1.61225 5.58499 18.232 43284.2 43286.3 15714.5 -1.00884e-05 0.365904 0.000446728
64 2 2.41837 6.98124 13.674 43283.9 43286.2 15714.8 0.000263026 0.5443 0.000151144
65 2 0.806124 6.98124 15.953 43284.2 43286.4 15716 -0.000281417 0.365719 0.000405382
66 2 4.03062 6.98124 18.232 43284.2 43286.3 15714.5 -0.000916469 0.365115 -0.000462154
67 2 0 5.58499 20.511 43156.6 43158.9 13508.6 0.000253715 0.544304 -4.34415e-05
68 2 3.2245 5.58499 22.79 29869.7 29871.8 -82132 -0.000380603 0.365813 -9.73466e-05
69 2 1.61225 5.58499 25.069 -205991 -205989 7858.55 9.20238e-06 0.0938921 -0.000378872
70 2 2.41837 6.98124 20.511 43156.6 43158.9 13508.6 -0.000606315 0.543644 -0.000139487
71 2 0.806124 6.98124 22.79 29869.7 29871.8 -82132 0.000475037 0.366093 -0.000170402
72 2 4.03062 6.98124 25.069 -205991 -205989 7858.56 -0.00168613 0.0944336 0.000325745
73 2 0 8.37749 0 -205991 -205989 7857.4 0.000205693 0.272286 -0.000193598
74 2 3.2245 8.37749 2.279 29869.7 29871.8 -82132 -3.46788e-06 0.365882 -9.80385e-05
75 2 1.61225 8.37749 4.55799 43157 43159.1 13509.7 -6.26534e-07 0.365913 -2.75574e-05
76 2 2.41837 9.77373 0 -205991 -205989 7857.4 -0.000127349 0.271884 -0.000273085
77 2 0.806124 9.77373 2.279 29869.7 29871.8 -82132 -2.02147e-06 0.365953 -0.000137272
78 2 4.03062 9.77373 4.55799 43157 43159.1 13509.7 7.5571e-05 0.365869 -0.000111358
79 2 0 8.37749 6.83699 43283.9 43286.2 15713.4 4.54979e-05 0.54414 -1.41883e-05
80 2 3.2245 8.37749 9.11598 43284.2 43286.4 15716 -0.000110351 0.365815 -0.000105707
81 2 1.61225 8.37749 11.395 43284.2 43286.4 15716 -1.20608e-05 0.36591 -7.40275e-05
82 2 2.41837 9.77373 6.83699 43283.9 43286.2 15713.4 -4.90957e-05 0.54387 -5.39423e-05
83 2 0.806124 9.77373 9.11598 43284.2 43286.4 15716 5.17782e-06 0.365918 -0.000134284
84 2 4.03062 9.77373 11.395 43284.2 43286.4 15716 0.00066912 0.366863 0.000497014
85 2 0 8.37749 13.674 43283.9 43286.2 15714.8 -0.000586635 0.543366 0.000425158
86 2 3.2245 8.37749 15.953 43284.2 43286.4 15716 -8.09754e-05 0.365691 0.000181453
87 2 1.61225 8.37749 18.232 43284.2 43286.3 15714.5 3.56599e-05 0.365933 8.93777e-05
88 2 2.41837 9.77373 13.674 43283.9 43286.2 15714.8 0.000282545 0.544276 0.000634357
89 2 0.806124 9.77373 15.953 43284.2 43286.4 15716 0.000431485 0.366451 0.000280753
90 2 4.03062 9.77373 18.232 43284.2 43286.3 15714.5 -0.00236801 0.364275 -0.000733964
91 2 0 8.37749 20.511 43156.6 43158.9 13508.6 0.00180174 0.544806 -0.000447332
92 2 3.2245 8.37749 22.79 29869.7 29871.8 -82132 -0.000704631 0.365999 -8.30111e-05
93 2 1.61225 8.37749 25.069 -205991 -205989 7858.55 4.25486e-05 0.0938582 -0.000167251
94 2 2.41837 9.77373 20.511 43156.6 43158.9 13508.6 -0.00112492 0.543628 -0.000717173
95 2 0.806124 9.77373 22.79 29869.7 29871.8 -82132 0.000252173 0.365802 -0.000121978
96 2 4.03062 9.77373 25.069 -205991 -205989 7858.56 0.00235866 0.0951738 0.000474093
97 2 0 11.17 0 -205991 -205989 7857.4 0.000239973 0.272145 -0.000241
98 2 3.2245 11.17 2.279 29869.7 29871.8 -82132 8.10566e-06 0.365978 -0.000112506
99 2 1.61225 11.17 4.55799 43157 43159.1 13509.7 1.95069e-06 0.365914 -8.59544e-05
100 2 2.41837 12.5662 0 -205991 -205989 7857.41 -9.75345e-05 0.271987 -0.000287311
101 2 0.806124 12.5662 2.279 29869.7 29871.8 -82132 -8.69125e-06 0.365906 -0.000103948
102 2 4.03062 12.5662 4.55799 43157 43159.1 13509.7 -2.12059e-05 0.365708 -0.000193192
103 2 0 11.17 6.83699 43283.9 43286.2 15713.4 0.000114447 0.544323 -0.000162175
104 2 3.2245 11.17 9.11598 43284.2 43286.4 15716 0.000137138 0.36621 3.12094e-05
105 2 1.61225 11.17 11.395 43284.2 43286.4 15716 -1.49197e-05 0.365891 0.000369872
106 2 2.41837 12.5662 6.83699 43283.9 43286.2 15713.4 -7.03882e-05 0.54383 -0.000206305
107 2 0.806124 12.5662 9.11598 43284.2 43286.4 15716 -0.000137485 0.365599 -6.16432e-06
108 2 4.03062 12.5662 11.395 43284.2 43286.4 15716 0.000570834 0.366735 0.000363623
109 2 0 11.17 13.674 43283.9 43286.2 15714.8 4.48237e-05 0.544331 0.000269244
110 2 3.2245 11.17 15.953 43284.2 43286.4 15716 -0.00159313 0.363905 -0.000517881
111 2 1.61225 11.17 18.232 43284.2 43286.3 15714.5 4.62146e-05 0.365985 -0.0010733
112 2 2.41837 12.5662 13.674 43283.9 43286.2 15714.8 -0.000190767 0.543443 0.000494946
113 2 0.806124 12.5662 15.953 43284.2 43286.3 15716 0.00126072 0.367706 -0.000565365
114 2 4.03062 12.5662 18.232 43284.2 43286.3 15714.5 -0.000160129 0.366478 0.000405541
115 2 0 11.17 20.511 43156.6 43158.9 13508.6 0.000240485 0.543455 7.85871e-06
116 2 3.2245 11.17 22.79 29869.7 29871.8 -82132 0.000584613 0.366562 0.000163109
117 2 1.61225 11.17 25.069 -205991 -205989 7858.56 -1.1072e-05 0.0938603 0.000676461
118 2 2.41837 12.5662 20.511 43156.6 43158.9 13508.6 0.000299107 0.54479 -0.000256604
119 2 0.806124 12.5662 22.79 29869.7 29871.8 -82132 -0.000548118 0.365549 0.000130256
120 2 4.03062 12.5662 25.069 -205991 -205989 7858.55 0.00649089 0.0928228 -0.000730908
121 2 0 13.9625 0 -205991 -205989 7857.41 0.000126374 0.27191 -0.000212559
122 2 3.2245 13.9625 2.279 29869.7 29871.8 -82132 1.77309e-05 0.366033 -7.11562e-05
123 2 1.61225 13.9625 4.55799 43157 43159.1 13509.7 3.39772e-06 0.36592 -7.54273e-05
124 2 2.41837 15.3587 0 -205991 -205989 7857.41 -3.71475e-05 0.272108 -0.00025113
125 2 0.806124 15.3587 2.279 29869.7 29871.8 -82132 -1.15434e-05 0.365888 -5.29697e-05
126 2 4.03062 15.3587 4.55799 43157 43159.1 13509.7 -4.89245e-05 0.365533 -0.000137337
127 2 0 13.9625 6.83699 43283.9 43286.2 15713.4 6.1522e-05 0.544186 -0.000114756
128 2 3.2245 13.9625 9.11598 43284.2 43286.4 15716 0.000293604 0.366755 0.000204192
129 2 1.61225 13.9625 11.395 43284.2 43286.4 15716 4.30053e-06 0.365892 0.00058146
130 2 2.41837 15.3587 6.83699 43283.9 43286.2 15713.4 -2.60011e-05 0.543947 -0.000126016
131 2 0.806124 15.3587 9.11598 43284.2 43286.4 15716 -0.000169863 0.365318 0.000166887
132 2 4.03062 15.3587 11.395 43284.2 43286.3 15716 -7.80645e-05 0.365313 -0.000100832
133 2 0 13.9625 13.674 43283.9 43286.2 15714.8 0.00112827 0.546605 -0.000370901
134 2 3.2245 13.9625 15.953 43284.2 43286.4 15716 -0.00168998 0.363398 -0.00077562
135 2 1.61225 13.9625 18.232 43284.2 43286.3 15714.5 -4.46081e-05 0.36595 -0.0011964
136 2 2.41837 15.3587 13.674 43283.9 43286.2 15714.8 -0.000679197 0.542109 -0.000141312
137 2 0.806124 15.3587 15.953 43284.2 43286.4 15716 0.00095877 0.367738 -0.000942387
138 2 4.03062 15.3587 18.232 43284.2 43286.3 15714.5 0.00210151 0.370131 0.00126333
139 2 0 13.9625 20.511 43156.6 43158.9 13508.6 -0.00221603 0.541225 0.000614686
140 2 3.2245 13.9625 22.79 29869.7 29871.8 -82132 0.00177086 0.366883 0.000270956
141 2 1.61225 13.9625 25.069 -205991 -205989 7858.56 -3.17632e-05 0.0938905 0.000804455
142 2 2.41837 15.3587 20.511 43156.6 43159 13508.6 0.00112881 0.545646 0.000283223
143 2 0.806124 15.3587 22.79 29869.7 29871.8 -82132 -0.000636267 0.365599 0.000167818
144 2 4.03062 15.3587 25.069 -205991 -205989 7858.55 0.00260952 0.0877001 -0.00176714
145 2 0 16.755 0 -205991 -205989 7857.41 2.73293e-05 0.271696 -0.00017459
146 2 3.2245 16.755 2.279 29869.7 29871.8 -82132 1.82995e-05 0.366042 -3.6654e-05
147 2 1.61225 16.755 4.55799 43157 43159.1 13509.7 2.25665e-06 0.365925 -3.7309e-05
148 2 2.41837 18.1512 0 -205991 -205989 7857.41 -4.67919e-06 0.272196 -0.000163805
149 2 0.806124 18.1512 2.279 29869.7 29871.8 -82132 -8.06497e-06 0.365889 -2.27328e-05
150 2 4.03062 18.1512 4.55799 43157 43159.1 13509.7 -2.14549e-05 0.36545 -5.22871e-05
151 2 0 16.755 6.83699 43283.9 43286.2 15713.4 -2.85094e-05 0.543871 2.08231e-05
152 2 3.2245 16.755 9.11598 43284.2 43286.4 15716 0.00025255 0.367061 0.000255714
153 2 1.61225 16.755 11.395 43284.2 43286.4 15716 2.19614e-05 0.365927 0.0004724
154 2 2.41837 18.1512 6.83699 43283.9 43286.2 15713.4 8.93288e-06 0.544095 -1.32438e-05
155 2 0.806124 18.1512 9.11598 43284.2 43286.4 15716 -0.000103539 0.365203 0.000173814
156 2 4.03062 18.1512 11.395 43284.2 43286.3 15716 -0.000325396 0.363694 -0.000235112
157 2 0 16.755 13.674 43283.9 43286.2 15714.8 0.0012417 0.548259 -0.000569785
158 2 3.2245 16.755 15.953 43284.2 43286.4 15716 -0.000641758 0.364872 -0.000369043
159 2 1.61225 16.755 18.232 43284.2 43286.3 15714.5 -7.51477e-05 0.365829 -0.000440841
160 2 2.41837 18.1512 13.674 43283.9 43286.2 15714.8 -0.000558085 0.541257 -0.00034939
161 2 0.806124 18.1512 15.953 43284.2 43286.4 15716 0.000280904 0.366723 -0.000523266
162 2 4.03062 18.1512 18.232 43284.2 43286.3 15714.5 0.00230975 0.373988 0.00113961
163 2 0 16.755 20.511 43156.6 43158.9 13508.6 -0.00277969 0.53939 0.000655113
164 2 3.2245 16.755 22.79 29869.7 29871.8 -82132 0.00184248 0.366492 0.000151217
165 2 1.61225 16.755 25.069 -205991 -205989 7858.56 -9.1567e-06 0.0938414 0.000312131
166 2 2.41837 18.1512 20.511 43156.7 43159 13508.6 0.00080623 0.545889 0.000290494
167 2 0.806124 18.1512 22.79 29869.7 29871.8 -82132 -0.000429557 0.36573 0.000116234
168 2 4.03062 18.1512 25.069 -205991 -205989 7858.55 -0.00190353 0.0847447 -0.00116442
169 2 0 19.5475 0 -205991 -205989 7857.41 -1.41802e-06 0.271575 -7.38441e-05
170 2 3.2245 19.5475 2.279 29869.7 29871.8 -82132 7.69757e-06 0.366037 -1.24102e-05
171 2 1.61225 19.5475 4.55799 43157 43159.1 13509.7 6.25141e-07 0.365928 -1.0066e-05
172 2 2.41837 20.9437 0 -205991 -205989 7857.41 -1.15043e-08 0.272228 -2.37878e-08
173 2 0.806124 20.9437 2.279 29869.7 29871.8 -82132 -8.87857e-09 0.365891 -1.57313e-09
174 2 4.03062 20.9437 4.55799 43157 43159.1 13509.7 8.90444e-10 0.365435 2.80554e-09
175 2 0 19.5475 6.83699 43283.9 43286.2 15713.4 -2.90904e-05 0.543643 3.53005e-05
176 2 3.2245 19.5475 9.11598 43284.2 43286.4 15716 9.45549e-05 0.367129 0.000115962
177 2 1.61225 19.5475 11.395 43284.2 43286.4 15716 1.26374e-05 0.365968 0.000172705
178 2 2.41837 20.9437 6.83699 43283.9 43286.2 15713.4 2.05463e-10 0.544157 2.23516e-09
179 2 0.806124 20.9437 9.11598 43284.2 43286.4 15716 -8.30931e-09 0.365184 1.82897e-10
180 2 4.03062 20.9437 11.395 43284.2 43286.3 15716 4.00239e-10 0.363056 3.97703e-10
181 2 0 19.5475 13.674 43283.9 43286.2 15714.8 0.00047523 0.548651 -0.000231709
182 2 3.2245 19.5475 15.953 43284.2 43286.4 15716 -8.4086e-05 0.366132 -6.83016e-05
183 2 1.61225 19.5475 18.232 43284.2 43286.3 15714.5 -2.98314e-05 0.365748 -6.01637e-05
184 2 2.41837 20.9437 13.674 43283.9 43286.2 15714.8 -1.2186e-10 0.541046 2.03165e-09
185 2 0.806124 20.9437 15.953 43284.2 43286.4 15716 -1.02189e-08 0.366207 -3.06576e-09
186 2 4.03062 20.9437 18.232 43284.2 43286.3 15714.5 1.3852e-10 0.37563 2.35658e-09
187 2 0 19.5475 20.511 43156.6 43158.9 13508.6 -0.00116767 0.538742 0.000236939
188 2 3.2245 19.5475 22.79 29869.7 29871.8 -82132 0.00060561 0.365453 -1.83709e-06
189 2 1.61225 19.5475 25.069 -205991 -205989 7858.56 2.07494e-06 0.0937466 1.29773e-05
190 2 2.41837 20.9437 20.511 43156.7 43159 13508.6 -1.49274e-09 0.54594 -5.10632e-09
191 2 0.806124 20.9437 22.79 29869.7 29871.8 -82132 -9.27974e-09 0.365861 -2.26001e-09
192 2 4.03062 20.9437 25.069 -205991 -205989 7858.55 8.62035e-09 0.0844344 1.70156e-08
193 2 0 22.34 0 -205991 -205989 7857.41 1.42546e-06 0.271575 7.38757e-05
194 2 3.2245 22.34 2.279 29869.7 29871.8 -82132 -7.69886e-06 0.366037 1.24054e-05
195 2 1.61225 22.34 4.55799 43157 43159.1 13509.7 -6.21585e-07 0.365928 1.00672e-05
196 2 2.41837 23.7362 0 -205991 -205989 7857.41 4.67135e-06 0.272196 0.000163784
197 2 0.806124 23.7362 2.279 29869.7 29871.8 -82132 8.07265e-06 0.365889 2.2746e-05
198 2 4.03062 23.7362 4.55799 43157 43159.1 13509.7 2.14513e-05 0.36545 5.22826e-05
199 2 0 22.34 6.83699 43283.9 43286.2 15713.4 2.90873e-05 0.543643 -3.52968e-05
200 2 3.2245 22.34 9.11598 43284.2 43286.4 15716 -9.45574e-05 0.367129 -0.00011597
201 2 1.61225 22.34 11.395 43284.2 43286.4 15716 -1.2635e-05 0.365968 -0.000172703
202 2 2.41837 23.7362 6.83699 43283.9 43286.2 15713.4 -8.93474e-06 0.544095 1.32361e-05
203 2 0.806124 23.7362 9.11598 43284.2 43286.4 15716 0.000103545 0.365203 -0.000173804
204 2 4.03062 23.7362 11.395 43284.2 43286.3 15716 0.000325388 0.363694 0.000235097
205 2 0 22.34 13.674 43283.9 43286.2 15714.8 -0.000475234 0.548651 0.000231712
206 2 3.2245 22.34 15.953 43284.2 43286.4 15716 8.40856e-05 0.366132 6.83027e-05
207 2 1.61225 22.34 18.232 43284.2 43286.3 15714.5 2.98287e-05 0.365748 6.01523e-05
208 2 2.41837 23.7362 13.674 43283.9 43286.2 15714.8 0.000558082 0.541257 0.000349383
209 2 0.806124 23.7362 15.953 43284.2 43286.4 15716 -0.000280899 0.366723 0.000523274
210 2 4.03062 23.7362 18.232 43284.2 43286.3 15714.5 -0.00230975 0.373988 -0.0011396
211 2 0 22.34 20.511 43156.6 43158.9 13508.6 0.00116767 0.538742 -0.000236934
212 2 3.2245 22.34 22.79 29869.7 29871.8 -82132 -0.00060561 0.365453 1.8351e-06
213 2 1.61225 22.34 25.069 -205991 -205989 7858.56 -2.08349e-06 0.0937466 -1.30116e-05
214 2 2.41837 23.7362 20.511 43156.7 43159 13508.6 -0.000806234 0.545889 -0.000290504
215 2 0.806124 23.7362 22.79 29869.7 29871.8 -82132 0.000429559 0.36573 -0.000116232
216 2 4.03062 23.7362 25.069 -205991 -205989 7858.55 0.00190353 0.0847447 0.00116444
217 2 0 25.1325 0 -205991 -205989 7857.41 -2.73391e-05 0.271696 0.000174597
218 2 3.2245 25.1325 2.279 29869.7 29871.8 -82132 -1.83002e-05 0.366042 3.66512e-05
219 2 1.61225 25.1325 4.55799 43157 43159.1 13509.7 -2.25431e-06 0.365925 3.73168e-05
220 2 2.41837 26.5287 0 -205991 -205989 7857.41 3.71506e-05 0.272108 0.000251132
221 2 0.806124 26.5287 2.279 29869.7 29871.8 -82132 1.15425e-05 0.365888 5.29709e-05
222 2 4.03062 26.5287 4.55799 43157 43159.1 13509.7 4.89236e-05 0.365533 0.000137331
223 2 0 25.1325 6.83699 43283.9 43286.2 15713.4 2.84984e-05 0.543871 -2.08208e-05
224 2 3.2245 25.1325 9.11598 43284.2 43286.4 15716 -0.000252552 0.367061 -0.000255725
225 2 1.61225 25.1325 11.395 43284.2 43286.4 15716 -2.19613e-05 0.365927 -0.000472401
226 2 2.41837 26.5287 6.83699 43283.9 43286.2 15713.4 2.60006e-05 0.543947 0.000126015
227 2 0.806124 26.5287 9.11598 43284.2 43286.4 15716 0.000169861 0.365318 -0.000166886
228 2 4.03062 26.5287 11.395 43284.2 43286.3 15716 7.80639e-05 0.365313 0.000100828
229 2 0 25.1325 13.674 43283.9 43286.2 15714.8 -0.0012417 0.548259 0.000569787
230 2 3.2245 25.1325 15.953 43284.2 43286.4 15716 0.00064176 0.364872 0.000369041
231 2 1.61225 25.1325 18.232 43284.2 43286.3 15714.5 7.51478e-05 0.365829 0.000440838
232 2 2.41837 26.5287 13.674 43283.9 43286.2 15714.8 0.000679197 0.542109 0.000141311
233 2 0.806124 26.5287 15.953 43284.2 43286.4 15716 -0.000958771 0.367738 0.000942388
234 2 4.03062 26.5287 18.232 43284.2 43286.3 15714.5 -0.00210151 0.370131 -0.00126333
235 2 0 25.1325 20.511 43156.6 43158.9 13508.6 0.00277968 0.53939 -0.000655105
236 2 3.2245 25.1325 22.79 29869.7 29871.8 -82132 -0.00184249 0.366492 -0.000151222
237 2 1.61225 25.1325 25.069 -205991 -205989 7858.56 9.15602e-06 0.0938414 -0.000312137
238 2 2.41837 26.5287 20.511 43156.6 43159 13508.6 -0.00112881 0.545646 -0.000283227
239 2 0.806124 26.5287 22.79 29869.7 29871.8 -82132 0.000636267 0.365599 -0.000167815
240 2 4.03062 26.5287 25.069 -205991 -205989 7858.55 -0.00260952 0.0877001 0.00176714
241 2 0 27.925 0 -205991 -205989 7857.41 -0.000126375 0.27191 0.00021256
242 2 3.2245 27.925 2.279 29869.7 29871.8 -82132 -1.77337e-05 0.366033 7.11567e-05
243 2 1.61225 27.925 4.55799 43157 43159.1 13509.7 -3.40218e-06 0.36592 7.54239e-05
244 2 2.41837 29.3212 0 -205991 -205989 7857.41 9.75301e-05 0.271987 0.0002873
245 2 0.806124 29.3212 2.279 29869.7 29871.8 -82132 8.6949e-06 0.365906 0.000103954
246 2 4.03062 29.3212 4.55799 43157 43159.1 13509.7 2.12038e-05 0.365708 0.00019319
247 2 0 27.925 6.83699 43283.9 43286.2 15713.4 -6.15271e-05 0.544186 0.000114752
248 2 3.2245 27.925 9.11598 43284.2 43286.4 15716 -0.000293605 0.366755 -0.000204191
249 2 1.61225 27.925 11.395 43284.2 43286.4 15716 -4.30398e-06 0.365892 -0.000581461
250 2 2.41837 29.3212 6.83699 43283.9 43286.2 15713.4 7.0387e-05 0.54383 0.000206303
251 2 0.806124 29.3212 9.11598 43284.2 43286.4 15716 0.000137487 0.365599 6.16942e-06
252 2 4.03062 29.3212 11.395 43284.2 43286.4 15716 -0.000570839 0.366735 -0.000363628
253 2 0 27.925 13.674 43283.9 43286.2 15714.8 -0.00112827 0.546605 0.000370897
254 2 3.2245 27.925 15.953 43284.2 43286.4 15716 0.00168998 0.363398 0.000775624
255 2 1.61225 27.925 18.232 43284.2 43286.3 15714.5 4.4603e-05 0.36595 0.00119639
256 2 2.41837 29.3212 13.674 43283.9 43286.2 15714.8 0.000190766 0.543443 -0.000494949
257 2 0.806124 29.3212 15.953 43284.2 43286.3 15716 -0.00126071 0.367706 0.000565369
258 2 4.03062 29.3212 18.232 43284.2 43286.3 15714.5 0.000160128 0.366478 -0.000405535
259 2 0 27.925 20.511 43156.6 43158.9 13508.6 0.00221603 0.541225 -0.000614688
260 2 3.2245 27.925 22.79 29869.7 29871.8 -82132 -0.00177085 0.366883 -0.000270951
261 2 1.61225 27.925 25.069 -205991 -205989 7858.56 3.17584e-05 0.0938905 -0.000804459
262 2 2.41837 29.3212 20.511 43156.6 43158.9 13508.6 -0.000299107 0.54479 0.000256599
263 2 0.806124 29.3212 22.79 29869.7 29871.8 -82132 0.00054812 0.365549 -0.000130258
264 2 4.03062 29.3212 25.069 -205991 -205989 7858.55 -0.00649089 0.0928228 0.000730918
265 2 0 30.7174 0 -205991 -205989 7857.4 -0.000239973 0.272145 0.00024101
266 2 3.2245 30.7174 2.279 29869.7 29871.8 -82132 -8.10667e-06 0.365978 0.000112503
267 2 1.61225 30.7174 4.55799 43157 43159.1 13509.7 -1.94752e-06 0.365914 8.59585e-05
268 2 2.41837 32.1137 0 -205991 -205989 7857.4 0.00012735 0.271884 0.000273085
269 2 0.806124 32.1137 2.279 29869.7 29871.8 -82132 2.0223e-06 0.365953 0.000137271
270 2 4.03062 32.1137 4.55799 43157 43159.1 13509.7 -7.5572e-05 0.365869 0.000111357
271 2 0 30.7174 6.83699 43283.9 43286.2 15713.4 -0.00011445 0.544323 0.000162175
272 2 3.2245 30.7174 9.11598 43284.2 43286.4 15716 -0.000137139 0.36621 -3.12165e-05
273 2 1.61225 30.7174 11.395 43284.2 43286.4 15716 1.49221e-05 0.365891 -0.00036987
274 2 2.41837 32.1137 6.83699 43283.9 43286.2 15713.4 4.90951e-05 0.54387 5.39437e-05
275 2 0.806124 32.1137 9.11598 43284.2 43286.4 15716 -5.17773e-06 0.365918 0.000134284
276 2 4.03062 32.1137 11.395 43284.2 43286.4 15716 -0.000669121 0.366863 -0.000497014
277 2 0 30.7174 13.674 43283.9 43286.2 15714.8 -4.48262e-05 0.544331 -0.000269245
278 2 3.2245 30.7174 15.953 43284.2 43286.4 15716 0.00159313 0.363905 0.000517883
279 2 1.61225 30.7174 18.232 43284.2 43286.3 15714.5 -4.62115e-05 0.365985 0.0010733
280 2 2.41837 32.1137 13.674 43283.9 43286.2 15714.8 -0.000282546 0.544276 -0.000634356
281 2 0.806124 32.1137 15.953 43284.2 43286.4 15716 -0.000431484 0.366451 -0.000280754
282 2 4.03062 32.1137 18.232 43284.2 43286.3 15714.5 0.00236801 0.364275 0.000733964
283 2 0 30.7174 20.511 43156.6 43158.9 13508.6 -0.000240487 0.543455 -7.85264e-06
284 2 3.2245 30.7174 22.79 29869.7 29871.8 -82132 -0.000584613 0.366562 -0.000163109
285 2 1.61225 30.7174 25.069 -205991 -205989 7858.56 1.10697e-05 0.0938603 -0.00067647
286 2 2.41837 32.1137 20.511 43156.6 43158.9 13508.6 0.00112492 0.543628 0.000717172
287 2 0.806124 32.1137 22.79 29869.7 29871.8 -82132 -0.000252173 0.365802 0.000121978
288 2 4.03062 32.1137 25.069 -205991 -205989 7858.56 -0.00235866 0.0951738 -0.000474093
289 2 0 33.5099 0 -205991 -205989 7857.4 -0.000205695 0.272286 0.000193601
290 2 3.2245 33.5099 2.279 29869.7 29871.8 -82132 3.46594e-06 0.365882 9.80378e-05
291 2 1.61225 33.5099 4.55799 43157 43159.1 13509.7 6.30431e-07 0.365913 2.75605e-05
292 2 2.41837 34.9062 0 -205991 -205989 7857.4 5.19989e-05 0.27186 8.40669e-05
293 2 0.806124 34.9062 2.279 29869.7 29871.8 -82132 -4.80899e-06 0.366005 6.09027e-05
294 2 4.03062 34.9062 4.55799 43157 43159.1 13509.7 -8.06235e-05 0.365894 -4.50537e-05
295 2 0 33.5099 6.83699 43283.9 43286.2 15713.4 -4.54955e-05 0.54414 1.4191e-05
296 2 3.2245 33.5099 9.11598 43284.2 43286.4 15716 0.00011035 0.365815 0.000105702
297 2 1.61225 33.5099 11.395 43284.2 43286.4 15716 1.20625e-05 0.36591 7.40265e-05
298 2 2.41837 34.9062 6.83699 43283.9 43286.2 15713.4 -2.47603e-06 0.544016 -0.000101077
299 2 0.806124 34.9062 9.11598 43284.2 43286.4 15716 -0.000101449 0.365998 0.000121224
300 2 4.03062 34.9062 11.395 43284.2 43286.4 15716 -0.000115073 0.366202 -9.07297e-05
301 2 0 33.5099 13.674 43283.9 43286.2 15714.8 0.000586635 0.543366 -0.000425155
302 2 3.2245 33.5099 15.953 43284.2 43286.4 15716 8.09731e-05 0.365691 -0.000181453
303 2 1.61225 33.5099 18.232 43284.2 43286.3 15714.5 -3.56555e-05 0.365933 -8.93742e-05
304 2 2.41837 34.9062 13.674 43283.9 43286.2 15714.8 -0.000263027 0.5443 -0.000151146
305 2 0.806124 34.9062 15.953 43284.2 43286.4 15716 0.000281417 0.365719 -0.000405379
306 2 4.03062 34.9062 18.232 43284.2 43286.3 15714.5 0.000916474 0.365115 0.000462162
307 2 0 33.5099 20.511 43156.6 43158.9 13508.6 -0.00180174 0.544806 0.000447336
308 2 3.2245 33.5099 22.79 29869.7 29871.8 -82132 0.000704628 0.365999 8.30074e-05
309 2 1.61225 33.5099 25.069 -205991 -205989 7858.55 -4.25433e-05 0.0938582 0.000167253
310 2 2.41837 34.9062 20.511 43156.6 43158.9 13508.6 0.000606314 0.543644 0.000139481
311 2 0.806124 34.9062 22.79 29869.7 29871.8 -82132 -0.000475036 0.366093 0.000170406
312 2 4.03062 34.9062 25.069 -205991 -205989 7858.56 0.00168614 0.0944336 -0.000325737
313 2 0 36.3024 0 -205991 -205989 7857.4 4.0795e-05 0.272238 -4.59732e-05
314 2 3.2245 36.3024 2.279 29869.7 29871.8 -82132 1.27815e-05 0.365827 -2.19587e-05
315 2 1.61225 36.3024 4.55799 43157 43159.1 13509.7 2.59865e-07 0.365915 -5.37952e-05
316 2 2.41837 37.6987 0 -205991 -205989 7857.4 -8.4536e-05 0.271932 -0.000240046
317 2 0.806124 37.6987 2.279 29869.7 29871.8 -82132 -8.9179e-06 0.366004 -0.000108681
318 2 4.03062 37.6987 4.55799 43157 43159.1 13509.7 9.23682e-05 0.365856 -8.97593e-05
319 2 0 36.3024 6.83699 43283.9 43286.2 15713.4 -6.40197e-06 0.543903 -2.53688e-05
320 2 3.2245 36.3024 9.11598 43284.2 43286.4 15716 0.000145126 0.365852 0.000162018
321 2 1.61225 36.3024 11.395 43284.2 43286.4 15716 -1.0631e-06 0.365922 0.00032083
322 2 2.41837 37.6987 6.83699 43283.9 43286.2 15713.4 1.09197e-05 0.544076 6.28938e-05
323 2 0.806124 37.6987 9.11598 43284.2 43286.4 15716 -3.33018e-05 0.365903 0.000154868
324 2 4.03062 37.6987 11.395 43284.2 43286.4 15716 0.000142117 0.365779 0.000224258
325 2 0 36.3024 13.674 43283.9 43286.2 15714.8 0.000282672 0.54373 -6.0564e-05
326 2 3.2245 36.3024 15.953 43284.2 43286.4 15716 -0.000548678 0.366261 -0.000294279
327 2 1.61225 36.3024 18.232 43284.2 43286.3 15714.5 1.00868e-05 0.365904 -0.000446729
328 2 2.41837 37.6987 13.674 43283.9 43286.2 15714.8 -1.28161e-05 0.544011 0.000165171
329 2 0.806124 37.6987 15.953 43284.2 43286.4 15716 0.000205599 0.365788 -9.42043e-05
330 2 4.03062 37.6987 18.232 43284.2 43286.3 15714.5 -0.000670245 0.36617 -0.000254361
331 2 0 36.3024 20.511 43156.6 43158.9 13508.6 -0.000253714 0.544304 4.34419e-05
332 2 3.2245 36.3024 22.79 29869.7 29871.8 -82132 0.000380603 0.365813 9.73461e-05
333 2 1.61225 36.3024 25.069 -205991 -205989 7858.55 -9.20444e-06 0.0938921 0.000378874
334 2 2.41837 37.6987 20.511 43156.6 43158.9 13508.6 -0.000201841 0.544036 -0.000216186
335 2 0.806124 37.6987 22.79 29869.7 29871.8 -82132 3.29447e-05 0.366016 -1.55246e-05
336 2 4.03062 37.6987 25.069 -205991 -205989 7858.55 0.000568978 0.0936338 0.00018522
337 2 0 39.0949 0 -205991 -205989 7857.41 0.000252305 0.272041 -0.000282315
338 2 3.2245 39.0949 2.279 29869.7 29871.8 -82132 1.60019e-05 0.365895 -0.000137643
339 2 1.61225 39.0949 4.55799 43157 43159.1 13509.7 -2.47371e-06 0.365915 -7.80828e-05
340 2 2.41837 40.4912 0 -205991 -205989 7857.41 -0.000118724 0.272037 -0.000320915
341 2 0.806124 40.4912 2.279 29869.7 29871.8 -82132 -7.32991e-06 0.36594 -0.000159682
342 2 4.03062 40.4912 4.55799 43157 43159.1 13509.7 0.000195774 0.365892 -2.88765e-05
343 2 0 39.0949 6.83699 43283.9 43286.2 15713.4 -7.51012e-05 0.543935 0.000147676
344 2 3.2245 39.0949 9.11598 43284.2 43286.4 15716 -2.43305e-05 0.36594 0.000184255
345 2 1.61225 39.0949 11.395 43284.2 43286.4 15716 1.15912e-06 0.365916 0.000133433
346 2 2.41837 40.4912 6.83699 43283.9 43286.2 15713.4 4.46544e-05 0.543997 0.000242316
347 2 0.806124 40.4912 9.11598 43284.2 43286.4 15716 4.413e-05 0.365917 0.000183913
348 2 4.03062 40.4912 11.395 43284.2 43286.4 15716 -9.3546e-05 0.365831 0.000100274
349 2 0 39.0949 13.674 43283.9 43286.2 15714.8 -4.67722e-05 0.544121 7.31735e-05
350 2 3.2245 39.0949 15.953 43284.2 43286.4 15716 -0.000109189 0.365983 -6.74362e-05
351 2 1.61225 39.0949 18.232 43284.2 43286.3 15714.5 -1.17771e-06 0.365909 -0.000110862
352 2 2.41837 40.4912 13.674 43283.9 43286.2 15714.8 2.98439e-05 0.54397 -2.2135e-05
353 2 0.806124 40.4912 15.953 43284.2 43286.4 15716 -6.5487e-05 0.365928 5.42446e-06
354 2 4.03062 40.4912 18.232 43284.2 43286.3 15714.5 -0.000125669 0.366053 -0.000134418
355 2 0 39.0949 20.511 43156.6 43158.9 13508.6 0.000381263 0.543881 -0.000133994