ITEM: TIMESTEP
0
ITEM: NUMBER OF ATOMS
3074
ITEM: BOX BOUNDS pp pp pp
0.0000000000000000e+00 3.8693948398131120e+01
0.0000000000000000e+00 4.4679925159782847e+01
0.0000000000000000e+00 6.0000000000000000e+01
ITEM: ATOMS id type xs ys zs
1 2 0 0 0
2 2 0.0833333 0 0.0379833
3 2 0.0416667 0 0.0759665
4 2 0.0625 0.03125 0
5 2 0.0208333 0.03125 0.0379833
6 2 0.104167 0.03125 0.0759665
7 2 0 0 0.11395
8 2 0.0833333 0 0.151933
9 2 0.0416667 0 0.189916
10 2 0.0625 0.03125 0.11395
11 2 0.0208333 0.03125 0.151933
12 2 0.104167 0.03125 0.189916
13 2 0 0 0.2279
14 2 0.0833333 0 0.265883
15 2 0.0416667 0 0.303866
16 2 0.0625 0.03125 0.2279
17 2 0.0208333 0.03125 0.265883
18 2 0.104167 0.03125 0.303866
19 2 0 0 0.341849
20 2 0.0833333 0 0.379833
21 2 0.0416667 0 0.417816
22 2 0.0625 0.03125 0.341849
23 2 0.0208333 0.03125 0.379833
24 2 0.104167 0.03125 0.417816
25 2 0 0.0625 0
26 2 0.0833333 0.0625 0.0379833
27 2 0.0416667 0.0625 0.0759665
28 2 0.0625 0.09375 0
29 2 0.0208333 0.09375 0.0379833
30 2 0.104167 0.09375 0.0759665
31 2 0 0.0625 0.11395
32 2 0.0833333 0.0625 0.151933
33 2 0.0416667 0.0625 0.189916
34 2 0.0625 0.09375 0.11395
35 2 0.0208333 0.09375 0.151933
36 2 0.104167 0.09375 0.189916
37 2 0 0.0625 0.2279
38 2 0.0833333 0.0625 0.265883
39 2 0.0416667 0.0625 0.303866
40 2 0.0625 0.09375 0.2279
41 2 0.0208333 0.09375 0.265883
42 2 0.104167 0.09375 0.303866
43 2 0 0.0625 0.341849
44 2 0.0833333 0.0625 0.379833
45 2 0.0416667 0.0625 0.417816
46 2 0.0625 0.09375 0.341849
47 2 0.0208333 0.09375 0.379833
48 2 0.104167 0.09375 0.417816
49 2 0 0.125 0
50 2 0.0833333 0.125 0.0379833
51 2 0.0416667 0.125 0.0759665
52 2 0.0625 0.15625 0
53 2 0.0208333 0.15625 0.0379833
54 2 0.104167 0.15625 0.0759665
55 2 0 0.125 0.11395
56 2 0.0833333 0.125 0.151933
57 2 0.0416667 0.125 0.189916
58 2 0.0625 0.15625 0.11395
59 2 0.0208333 0.15625 0.151933
60 2 0.104167 0.15625 0.189916
61 2 0 0.125 0.2279
62 2 0.0833333 0.125 0.265883
63 2 0.0416667 0.125 0.303866
64 2 0.0625 0.15625 0.2279
65 2 0.0208333 0.15625 0.265883
66 2 0.104167 0.15625 0.303866
67 2 0 0.125 0.341849
68 2 0.0833333 0.125 0.379833
69 2 0.0416667 0.125 0.417816
70 2 0.0625 0.15625 0.341849
71 2 0.0208333 0.15625 0.379833
72 2 0.104167 0.15625 0.417816
73 2 0 0.1875 0
74 2 0.0833333 0.1875 0.0379833
75 2 0.0416667 0.1875 0.0759665
76 2 0.0625 0.21875 0
77 2 0.0208333 0.21875 0.0379833
78 2 0.104167 0.21875 0.0759665
79 2 0 0.1875 0.11395
80 2 0.0833333 0.1875 0.151933
81 2 0.0416667 0.1875 0.189916
82 2 0.0625 0.21875 0.11395
83 2 0.0208333 0.21875 0.151933
84 2 0.104167 0.21875 0.189916
85 2 0 0.1875 0.2279
86 2 0.0833333 0.1875 0.265883
87 2 0.0416667 0.1875 0.303866
88 2 0.0625 0.21875 0.2279
89 2 0.0208333 0.21875 0.265883
90 2 0.104167 0.21875 0.303866
91 2 0 0.1875 0.341849
92 2 0.0833333 0.1875 0.379833
93 2 0.0416667 0.1875 0.417816
94 2 0.0625 0.21875 0.341849
95 2 0.0208333 0.21875 0.379833
96 2 0.104167 0.21875 0.417816
97 2 0 0.25 0
98 2 0.0833333 0.25 0.0379833
99 2 0.0416667 0.25 0.0759665
100 2 0.0625 0.28125 0
101 2 0.0208333 0.28125 0.0379833
102 2 0.104167 0.28125 0.0759665
103 2 0 0.25 0.11395
104 2 0.0833333 0.25 0.151933
105 2 0.0416667 0.25 0.189916
106 2 0.0625 0.28125 0.11395
107 2 0.0208333 0.28125 0.151933
108 2 0.104167 0.28125 0.189916
109 2 0 0.25 0.2279
110 2 0.0833333 0.25 0.265883
111 2 0.0416667 0.25 0.303866
112 2 0.0625 0.28125 0.2279
113 2 0.0208333 0.28125 0.265883
114 2 0.104167 0.28125 0.303866
115 2 0 0.25 0.341849
116 2 0.0833333 0.25 0.379833
117 2 0.0416667 0.25 0.417816
118 2 0.0625 0.28125 0.341849
119 2 0.0208333 0.28125 0.379833
120 2 0.104167 0.28125 0.417816
121 2 0 0.3125 0
122 2 0.0833333 0.3125 0.0379833
123 2 0.0416667 0.3125 0.0759665
124 2 0.0625 0.34375 0
125 2 0.0208333 0.34375 0.0379833
126 2 0.104167 0.34375 0.0759665
127 2 0 0.3125 0.11395
128 2 0.0833333 0.3125 0.151933
129 2 0.0416667 0.3125 0.189916
130 2 0.0625 0.34375 0.11395
131 2 0.0208333 0.34375 0.151933
132 2 0.104167 0.34375 0.189916
133 2 0 0.3125 0.2279
134 2 0.0833333 0.3125 0.265883
135 2 0.0416667 0.3125 0.303866
136 2 0.0625 0.34375 0.2279
137 2 0.0208333 0.34375 0.265883
138 2 0.104167 0.34375 0.303866
139 2 0 0.3125 0.341849
140 2 0.0833333 0.3125 0.379833
141 2 0.0416667 0.3125 0.417816
142 2 0.0625 0.34375 0.341849
143 2 0.0208333 0.34375 0.379833
144 2 0.104167 0.34375 0.417816
145 2 0 0.375 0
146 2 0.0833333 0.375 0.0379833
147 2 0.0416667 0.375 0.0759665
148 2 0.0625 0.40625 0
149 2 0.0208333 0.40625 0.0379833
150 2 0.104167 0.40625 0.0759665
151 2 0 0.375 0.11395
152 2 0.0833333 0.375 0.151933
153 2 0.0416667 0.375 0.189916
154 2 0.0625 0.40625 0.11395
155 2 0.0208333 0.40625 0.151933
156 2 0.104167 0.40625 0.189916
157 2 0 0.375 0.2279
158 2 0.0833333 0.375 0.265883
159 2 0.0416667 0.375 0.303866
160 2 0.0625 0.40625 0.2279
161 2 0.0208333 0.40625 0.265883
162 2 0.104167 0.40625 0.303866
163 2 0 0.375 0.341849
164 2 0.0833333 0.375 0.379833
165 2 0.0416667 0.375 0.417816
166 2 0.0625 0.40625 0.341849
167 2 0.0208333 0.40625 0.379833
168 2 0.104167 0.40625 0.417816
169 2 0 0.4375 0
170 2 0.0833333 0.4375 0.0379833
171 2 0.0416667 0.4375 0.0759665
172 2 0.0625 0.46875 0
173 2 0.0208333 0.46875 0.0379833
174 2 0.104167 0.46875 0.0759665
175 2 0 0.4375 0.11395
176 2 0.0833333 0.4375 0.151933
177 2 0.0416667 0.4375 0.189916
178 2 0.0625 0.46875 0.11395
179 2 0.0208333 0.46875 0.151933
180 2 0.104167 0.46875 0.189916
181 2 0 0.4375 0.2279
182 2 0.0833333 0.4375 0.265883
183 2 0.0416667 0.4375 0.303866
184 2 0.0625 0.46875 0.2279
185 2 0.0208333 0.46875 0.265883
186 2 0.104167 0.46875 0.303866
187 2 0 0.4375 0.341849
188 2 0.0833333 0.4375 0.379833
189 2 0.0416667 0.4375 0.417816
190 2 0.0625 0.46875 0.341849
191 2 0.0208333 0.46875 0.379833
192 2 0.104167 0.46875 0.417816
193 2 0 0.5 0
194 2 0.0833333 0.5 0.0379833
195 2 0.0416667 0.5 0.0759665
196 2 0.0625 0.53125 0
197 2 0.0208333 0.53125 0.0379833
198 2 0.104167 0.53125 0.0759665
199 2 0 0.5 0.11395
200 2 0.0833333 0.5 0.151933
201 2 0.0416667 0.5 0.189916
202 2 0.0625 0.53125 0.11395
203 2 0.0208333 0.53125 0.151933
204 2 0.104167 0.53125 0.189916
205 2 0 0.5 0.2279
206 2 0.0833333 0.5 0.265883
207 2 0.0416667 0.5 0.303866
208 2 0.0625 0.53125 0.2279
209 2 0.0208333 0.53125 0.265883
210 2 0.104167 0.53125 0.303866
211 2 0 0.5 0.341849
212 2 0.0833333 0.5 0.379833
213 2 0.0416667 0.5 0.417816
214 2 0.0625 0.53125 0.341849
215 2 0.0208333 0.53125 0.379833
216 2 0.104167 0.53125 0.417816
217 2 0 0.5625 0
218 2 0.0833333 0.5625 0.0379833
219 2 0.0416667 0.5625 0.0759665
220 2 0.0625 0.59375 0
221 2 0.0208333 0.59375 0.0379833
222 2 0.104167 0.59375 0.0759665
223 2 0 0.5625 0.11395
224 2 0.0833333 0.5625 0.151933
225 2 0.0416667 0.5625 0.189916
226 2 0.0625 0.59375 0.11395
227 2 0.0208333 0.59375 0.151933
228 2 0.104167 0.59375 0.189916
229 2 0 0.5625 0.2279
230 2 0.0833333 0.5625 0.265883
231 2 0.0416667 0.5625 0.303866
232 2 0.0625 0.59375 0.2279
233 2 0.0208333 0.59375 0.265883
234 2 0.104167 0.59375 0.303866
235 2 0 0.5625 0.341849
236 2 0.0833333 0.5625 0.379833
237 2 0.0416667 0.5625 0.417816
238 2 0.0625 0.59375 0.341849
239 2 0.0208333 0.59375 0.379833
240 2 0.104167 0.59375 0.417816
241 2 0 0.625 0
242 2 0.0833333 0.625 0.0379833
243 2 0.0416667 0.625 0.0759665
244 2 0.0625 0.65625 0
245 2 0.0208333 0.65625 0.0379833
246 2 0.104167 0.65625 0.0759665
247 2 0 0.625 0.11395
248 2 0.0833333 0.625 0.151933
249 2 0.0416667 0.625 0.189916
250 2 0.0625 0.65625 0.11395
251 2 0.0208333 0.65625 0.151933
252 2 0.104167 0.65625 0.189916
253 2 0 0.625 0.2279
254 2 0.0833333 0.625 0.265883
255 2 0.0416667 0.625 0.303866
256 2 0.0625 0.65625 0.2279
257 2 0.0208333 0.65625 0.265883
258 2 0.104167 0.65625 0.303866
259 2 0 0.625 0.341849
260 2 0.0833333 0.625 0.379833
261 2 0.0416667 0.625 0.417816
262 2 0.0625 0.65625 0.341849
263 2 0.0208333 0.65625 0.379833
264 2 0.104167 0.65625 0.417816
265 2 0 0.6875 0
266 2 0.0833333 0.6875 0.0379833
267 2 0.0416667 0.6875 0.0759665
268 2 0.0625 0.71875 0
269 2 0.0208333 0.71875 0.0379833
270 2 0.104167 0.71875 0.0759665
271 2 0 0.6875 0.11395
272 2 0.0833333 0.6875 0.151933
273 2 0.0416667 0.6875 0.189916
274 2 0.0625 0.71875 0.11395
275 2 0.0208333 0.71875 0.151933
276 2 0.104167 0.71875 0.189916
277 2 0 0.6875 0.2279
278 2 0.0833333 0.6875 0.265883
279 2 0.0416667 0.6875 0.303866
280 2 0.0625 0.71875 0.2279
281 2 0.0208333 0.71875 0.265883
282 2 0.104167 0.71875 0.303866
283 2 0 0.6875 0.341849
284 2 0.0833333 0.6875 0.379833
285 2 0.0416667 0.6875 0.417816
286 2 0.0625 0.71875 0.341849
287 2 0.0208333 0.71875 0.379833
288 2 0.104167 0.71875 0.417816
289 2 0 0.75 0
290 2 0.0833333 0.75 0.0379833
291 2 0.0416667 0.75 0.0759665
292 2 0.0625 0.78125 0
293 2 0.0208333 0.78125 0.0379833
294 2 0.104167 0.78125 0.0759665
295 2 0 0.75 0.11395
296 2 0.0833333 0.75 0.151933
297 2 0.0416667 0.75 0.189916
298 2 0.0625 0.78125 0.11395
299 2 0.0208333 0.78125 0.151933
300 2 0.104167 0.78125 0.189916
301 2 0 0.75 0.2279
302 2 0.0833333 0.75 0.265883
303 2 0.0416667 0.75 0.303866
304 2 0.0625 0.78125 0.2279
305 2 0.0208333 0.78125 0.265883
306 2 0.104167 0.78125 0.303866
307 2 0 0.75 0.341849
308 2 0.0833333 0.75 0.379833
309 2 0.0416667 0.75 0.417816
310 2 0.0625 0.78125 0.341849
311 2 0.0208333 0.78125 0.379833
312 2 0.104167 0.78125 0.417816
313 2 0 0.8125 0
314 2 0.0833333 0.8125 0.0379833
315 2 0.0416667 0.8125 0.0759665
316 2 0.0625 0.84375 0
317 2 0.0208333 0.84375 0.0379833
318 2 0.104167 0.84375 0.0759665
319 2 0 0.8125 0.11395
320 2 0.0833333 0.8125 0.151933
321 2 0.0416667 0.8125 0.189916
322 2 0.0625 0.84375 0.11395
323 2 0.0208333 0.84375 0.151933
324 2 0.104167 0.84375 0.189916
325 2 0 0.8125 0.2279
326 2 0.0833333 0.8125 0.265883
327 2 0.0416667 0.8125 0.303866
328 2 0.0625 0.84375 0.2279
329 2 0.0208333 0.84375 0.265883
330 2 0.104167 0.84375 0.303866
331 2 0 0.8125 0.341849
332 2 0.0833333 0.8125 0.379833
333 2 0.0416667 0.8125 0.417816
334 2 0.0625 0.84375 0.341849
335 2 0.0208333 0.84375 0.379833
336 2 0.104167 0.84375 0.417816
337 2 0 0.875 0
338 2 0.0833333 0.875 0.0379833
339 2 0.0416667 0.875 0.0759665
340 2 0.0625 0.90625 0
341 2 0.0208333 0.90625 0.0379833
342 2 0.104167 0.90625 0.0759665
343 2 0 0.875 0.11395
344 2 0.0833333 0.875 0.151933
345 2 0.0416667 0.875 0.189916
346 2 0.0625 0.90625 0.11395
347 2 0.0208333 0.90625 0.151933
348 2 0.104167 0.90625 0.189916
349 2 0 0.875 0.2279
350 2 0.0833333 0.875 0.265883
351 2 0.0416667 0.875 0.303866
352 2 0.0625 0.90625 0.2279
353 2 0.0208333 0.90625 0.265883
354 2 0.104167 0.90625 0.303866
355 2 0 0.875 0.341849
356 2 0.0833333 0.875 0.379833
357 2 0.0416667 0.875 0.417816
358 2 0.0625 0.90625 0.341849
359 2 0.0208333 0.90625 0.379833
360 2 0.104167 0.90625 0.417816
361 2 0 0.9375 0
362 2 0.0833333 0.9375 0.0379833
363 2 0.0416667 0.9375 0.0759665
364 2 0.0625 0.96875 0
365 2 0.0208333 0.96875 0.0379833
366 2 0.104167 0.96875 0.0759665
367 2 0 0.9375 0.11395
368 2 0.0833333 0.9375 0.151933
369 2 0.0416667 0.9375 0.189916
370 2 0.0625 0.96875 0.11395
371 2 0.0208333 0.96875 0.151933
372 2 0.104167 0.96875 0.189916
373 2 0 0.9375 0.2279
374 2 0.0833333 0.9375 0.265883
375 2 0.0416667 0.9375 0.303866
376 2 0.0625 0.96875 0.2279
377 2 0.0208333 0.96875 0.265883
378 2 0.104167 0.96875 0.303866
379 2 0 0.9375 0.341849
380 2 0.0833333 0.9375 0.379833
381 2 0.0416667 0.9375 0.417816
382 2 0.0625 0.96875 0.341849
383 2 0.0208333 0.96875 0.379833
384 2 0.104167 0.96875 0.417816
385 2 0.125 0 0
386 2 0.208333 0 0.0379833
387 2 0.166667 0 0.0759665
388 2 0.1875 0.03125 0
389 2 0.145833 0.03125 0.0379833
390 2 0.229167 0.03125 0.0759665
391 2 0.125 0 0.11395
392 2 0.208333 0 0.151933
393 2 0.166667 0 0.189916
394 2 0.1875 0.03125 0.11395
395 2 0.145833 0.03125 0.151933
396 2 0.229167 0.03125 0.189916
397 2 0.125 0 0.2279
398 2 0.208333 0 0.265883
399 2 0.166667 0 0.303866
400 2 0.1875 0.03125 0.2279
401 2 0.145833 0.03125 0.265883
402 2 0.229167 0.03125 0.303866
403 2 0.125 0 0.341849
404 2 0.208333 0 0.379833
405 2 0.166667 0 0.417816
406 2 0.1875 0.03125 0.341849
407 2 0.145833 0.03125 0.379833
408 2 0.229167 0.03125 0.417816
409 2 0.125 0.0625 0
410 2 0.208333 0.0625 0.0379833
411 2 0.166667 0.0625 0.0759665
412 2 0.1875 0.09375 0
413 2 0.145833 0.09375 0.0379833
414 2 0.229167 0.09375 0.0759665
415 2 0.125 0.0625 0.11395
416 2 0.208333 0.0625 0.151933
417 2 0.166667 0.0625 0.189916
418 2 0.1875 0.09375 0.11395
419 2 0.145833 0.09375 0.151933
420 2 0.229167 0.09375 0.189916
421 2 0.125 0.0625 0.2279
422 2 0.208333 0.0625 0.265883
423 2 0.166667 0.0625 0.303866
424 2 0.1875 0.09375 0.2279
425 2 0.145833 0.09375 0.265883
426 2 0.229167 0.09375 0.303866
427 2 0.125 0.0625 0.341849
428 2 0.208333 0.0625 0.379833
429 2 0.166667 0.0625 0.417816
430 2 0.1875 0.09375 0.341849
431 2 0.145833 0.09375 0.379833
432 2 0.229167 0.09375 0.417816
433 2 0.125 0.125 0
434 2 0.208333 0.125 0.0379833
435 2 0.166667 0.125 0.0759665
436 2 0.1875 0.15625 0
437 2 0.145833 0.15625 0.0379833
438 2 0.229167 0.15625 0.0759665
439 2 0.125 0.125 0.11395
440 2 0.208333 0.125 0.151933
441 2 0.166667 0.125 0.189916
442 2 0.1875 0.15625 0.11395
443 2 0.145833 0.15625 0.151933
444 2 0.229167 0.15625 0.189916
445 2 0.125 0.125 0.2279
446 2 0.208333 0.125 0.265883
447 2 0.166667 0.125 0.303866
448 2 0.1875 0.15625 0.2279
449 2 0.145833 0.15625 0.265883
450 2 0.229167 0.15625 0.303866
451 2 0.125 0.125 0.341849
452 2 0.208333 0.125 0.379833
453 2 0.166667 0.125 0.417816
454 2 0.1875 0.15625 0.341849
455 2 0.145833 0.15625 0.379833
456 2 0.229167 0.15625 0.417816
457 2 0.125 0.1875 0
458 2 0.208333 0.1875 0.0379833
459 2 0.166667 0.1875 0.0759665
460 2 0.1875 0.21875 0
461 2 0.145833 0.21875 0.0379833
462 2 0.229167 0.21875 0.0759665
463 2 0.125 0.1875 0.11395
464 2 0.208333 0.1875 0.151933
465 2 0.166667 0.1875 0.189916
466 2 0.1875 0.21875 0.11395
467 2 0.145833 0.21875 0.151933
468 2 0.229167 0.21875 0.189916
469 2 0.125 0.1875 0.2279
470 2 0.208333 0.1875 0.265883
471 2 0.166667 0.1875 0.303866
472 2 0.1875 0.21875 0.2279
473 2 0.145833 0.21875 0.265883
474 2 0.229167 0.21875 0.303866
475 2 0.125 0.1875 0.341849
476 2 0.208333 0.1875 0.379833
477 2 0.166667 0.1875 0.417816
478 2 0.1875 0.21875 0.341849
479 2 0.145833 0.21875 0.379833
480 2 0.229167 0.21875 0.417816
481 2 0.125 0.25 0
482 2 0.208333 0.25 0.0379833
483 2 0.166667 0.25 0.0759665
484 2 0.1875 0.28125 0
485 2 0.145833 0.28125 0.0379833
486 2 0.229167 0.28125 0.0759665
487 2 0.125 0.25 0.11395
488 2 0.208333 0.25 0.151933
489 2 0.166667 0.25 0.189916
490 2 0.1875 0.28125 0.11395
491 2 0.145833 0.28125 0.151933
492 2 0.229167 0.28125 0.189916
493 2 0.125 0.25 0.2279
494 2 0.208333 0.25 0.265883
495 2 0.166667 0.25 0.303866
496 2 0.1875 0.28125 0.2279
497 2 0.145833 0.28125 0.265883
498 2 0.229167 0.28125 0.303866
499 2 0.125 0.25 0.341849
500 2 0.208333 0.25 0.379833
501 2 0.166667 0.25 0.417816
502 2 0.1875 0.28125 0.341849
503 2 0.145833 0.28125 0.379833
504 2 0.229167 0.28125 0.417816
505 2 0.125 0.3125 0
506 2 0.208333 0.3125 0.0379833
507 2 0.166667 0.3125 0.0759665
508 2 0.1875 0.34375 0
509 2 0.145833 0.34375 0.0379833
510 2 0.229167 0.34375 0.0759665
511 2 0.125 0.3125 0.11395
512 2 0.208333 0.3125 0.151933
513 2 0.166667 0.3125 0.189916
514 2 0.1875 0.34375 0.11395
515 2 0.145833 0.34375 0.151933
516 2 0.229167 0.34375 0.189916
517 2 0.125 0.3125 0.2279
518 2 0.208333 0.3125 0.265883
519 2 0.166667 0.3125 0.303866
520 2 0.1875 0.34375 0.2279
521 2 0.145833 0.34375 0.265883
522 2 0.229167 0.34375 0.303866
523 2 0.125 0.3125 0.341849
524 2 0.208333 0.3125 0.379833
525 2 0.166667 0.3125 0.417816
526 2 0.1875 0.34375 0.341849
527 2 0.145833 0.34375 0.379833
528 2 0.229167 0.34375 0.417816
529 2 0.125 0.375 0
530 2 0.208333 0.375 0.0379833
531 2 0.166667 0.375 0.0759665
532 2 0.1875 0.40625 0
533 2 0.145833 0.40625 0.0379833
534 2 0.229167 0.40625 0.0759665
535 2 0.125 0.375 0.11395
536 2 0.208333 0.375 0.151933
537 2 0.166667 0.375 0.189916
538 2 0.1875 0.40625 0.11395
539 2 0.145833 0.40625 0.151933
540 2 0.229167 0.40625 0.189916
541 2 0.125 0.375 0.2279
542 2 0.208333 0.375 0.265883
543 2 0.166667 0.375 0.303866
544 2 0.1875 0.40625 0.2279
545 2 0.145833 0.40625 0.265883
546 2 0.229167 0.40625 0.303866
547 2 0.125 0.375 0.341849
548 2 0.208333 0.375 0.379833
549 2 0.166667 0.375 0.417816
550 2 0.1875 0.40625 0.341849
551 2 0.145833 0.40625 0.379833
552 2 0.229167 0.40625 0.417816
553 2 0.125 0.4375 0
554 2 0.208333 0.4375 0.0379833
555 2 0.166667 0.4375 0.0759665
556 2 0.1875 0.46875 0
557 2 0.145833 0.46875 0.0379833
558 2 0.229167 0.46875 0.0759665
559 2 0.125 0.4375 0.11395
560 2 0.208333 0.4375 0.151933
561 2 0.166667 0.4375 0.189916
562 2 0.1875 0.46875 0.11395
563 2 0.145833 0.46875 0.151933
564 2 0.229167 0.46875 0.189916
565 2 0.125 0.4375 0.2279
566 2 0.208333 0.4375 0.265883
567 2 0.166667 0.4375 0.303866
568 2 0.1875 0.46875 0.2279
569 2 0.145833 0.46875 0.265883
570 2 0.229167 0.46875 0.303866
571 2 0.125 0.4375 0.341849
572 2 0.208333 0.4375 0.379833
573 2 0.166667 0.4375 0.417816
574 2 0.1875 0.46875 0.341849
575 2 0.145833 0.46875 0.379833
576 2 0.229167 0.46875 0.417816
577 2 0.125 0.5 0
578 2 0.208333 0.5 0.0379833
579 2 0.166667 0.5 0.0759665
580 2 0.1875 0.53125 0
581 2 0.145833 0.53125 0.0379833
582 2 0.229167 0.53125 0.0759665
583 2 0.125 0.5 0.11395
584 2 0.208333 0.5 0.151933
585 2 0.166667 0.5 0.189916
586 2 0.1875 0.53125 0.11395
587 2 0.145833 0.53125 0.151933
588 2 0.229167 0.53125 0.189916
589 2 0.125 0.5 0.2279
590 2 0.208333 0.5 0.265883
591 2 0.166667 0.5 0.303866
592 2 0.1875 0.53125 0.2279
593 2 0.145833 0.53125 0.265883
594 2 0.229167 0.53125 0.303866
595 2 0.125 0.5 0.341849
596 2 0.208333 0.5 0.379833
597 2 0.166667 0.5 0.417816
598 2 0.1875 0.53125 0.341849
599 2 0.145833 0.53125 0.379833
600 2 0.229167 0.53125 0.417816
601 2 0.125 0.5625 0
602 2 0.208333 0.5625 0.0379833
603 2 0.166667 0.5625 0.0759665
604 2 0.1875 0.59375 0
605 2 0.145833 0.59375 0.0379833
606 2 0.229167 0.59375 0.0759665
607 2 0.125 0.5625 0.11395
608 2 0.208333 0.5625 0.151933
609 2 0.166667 0.5625 0.189916
610 2 0.1875 0.59375 0.11395
611 2 0.145833 0.59375 0.151933
612 2 0.229167 0.59375 0.189916
613 2 0.125 0.5625 0.2279
614 2 0.208333 0.5625 0.265883
615 2 0.166667 0.5625 0.303866
616 2 0.1875 0.59375 0.2279
617 2 0.145833 0.59375 0.265883
618 2 0.229167 0.59375 0.303866
619 2 0.125 0.5625 0.341849
620 2 0.208333 0.5625 0.379833
621 2 0.166667 0.5625 0.417816
622 2 0.1875 0.59375 0.341849
623 2 0.145833 0.59375 0.379833
624 2 0.229167 0.59375 0.417816
625 2 0.125 0.625 0
626 2 0.208333 0.625 0.0379833
627 2 0.166667 0.625 0.0759665
628 2 0.1875 0.65625 0
629 2 0.145833 0.65625 0.0379833
630 2 0.229167 0.65625 0.0759665
631 2 0.125 0.625 0.11395
632 2 0.208333 0.625 0.151933
633 2 0.166667 0.625 0.189916
634 2 0.1875 0.65625 0.11395
635 2 0.145833 0.65625 0.151933
636 2 0.229167 0.65625 0.189916
637 2 0.125 0.625 0.2279
638 2 0.208333 0.625 0.265883
639 2 0.166667 0.625 0.303866
640 2 0.1875 0.65625 0.2279
641 2 0.145833 0.65625 0.265883
642 2 0.229167 0.65625 0.303866
643 2 0.125 0.625 0.341849
644 2 0.208333 0.625 0.379833
645 2 0.166667 0.625 0.417816
646 2 0.1875 0.65625 0.341849
647 2 0.145833 0.65625 0.379833
648 2 0.229167 0.65625 0.417816
649 2 0.125 0.6875 0
650 2 0.208333 0.6875 0.0379833
651 2 0.166667 0.6875 0.0759665
652 2 0.1875 0.71875 0
653 2 0.145833 0.71875 0.0379833
654 2 0.229167 0.71875 0.0759665
655 2 0.125 0.6875 0.11395
656 2 0.208333 0.6875 0.151933
657 2 0.166667 0.6875 0.189916
658 2 0.1875 0.71875 0.11395
659 2 0.145833 0.71875 0.151933
660 2 0.229167 0.71875 0.189916
661 2 0.125 0.6875 0.2279
662 2 0.208333 0.6875 0.265883
663 2 0.166667 0.6875 0.303866
664 2 0.1875 0.71875 0.2279
665 2 0.145833 0.71875 0.265883
666 2 0.229167 0.71875 0.303866
667 2 0.125 0.6875 0.341849
668 2 0.208333 0.6875 0.379833
669 2 0.166667 0.6875 0.417816
670 2 0.1875 0.71875 0.341849
671 2 0.145833 0.71875 0.379833
672 2 0.229167 0.71875 0.417816
673 2 0.125 0.75 0
674 2 0.208333 0.75 0.0379833
675 2 0.166667 0.75 0.0759665
676 2 0.1875 0.78125 0
677 2 0.145833 0.78125 0.0379833
678 2 0.229167 0.78125 0.0759665
679 2 0.125 0.75 0.11395
680 2 0.208333 0.75 0.151933
681 2 0.166667 0.75 0.189916
682 2 0.1875 0.78125 0.11395
683 2 0.145833 0.78125 0.151933
684 2 0.229167 0.78125 0.189916
685 2 0.125 0.75 0.2279
686 2 0.208333 0.75 0.265883
687 2 0.166667 0.75 0.303866
688 2 0.1875 0.78125 0.2279
689 2 0.145833 0.78125 0.265883
690 2 0.229167 0.78125 0.303866
691 2 0.125 0.75 0.341849
692 2 0.208333 0.75 0.379833
693 2 0.166667 0.75 0.417816
694 2 0.1875 0.78125 0.341849
695 2 0.145833 0.78125 0.379833
696 2 0.229167 0.78125 0.417816
697 2 0.125 0.8125 0
698 2 0.208333 0.8125 0.0379833
699 2 0.166667 0.8125 0.0759665
700 2 0.1875 0.84375 0
701 2 0.145833 0.84375 0.0379833
702 2 0.229167 0.84375 0.0759665
703 2 0.125 0.8125 0.11395
704 2 0.208333 0.8125 0.151933
705 2 0.166667 0.8125 0.189916
706 2 0.1875 0.84375 0.11395
707 2 0.145833 0.84375 0.151933
708 2 0.229167 0.84375 0.189916
709 2 0.125 0.8125 0.2279
710 2 0.208333 0.8125 0.265883
711 2 0.166667 0.8125 0.303866
712 2 0.1875 0.84375 0.2279
713 2 0.145833 0.84375 0.265883
714 2 0.229167 0.84375 0.303866
715 2 0.125 0.8125 0.341849
716 2 0.208333 0.8125 0.379833
717 2 0.166667 0.8125 0.417816
718 2 0.1875 0.84375 0.341849
719 2 0.145833 0.84375 0.379833
720 2 0.229167 0.84375 0.417816
721 2 0.125 0.875 0
722 2 0.208333 0.875 0.0379833
723 2 0.166667 0.875 0.0759665
724 2 0.1875 0.90625 0
725 2 0.145833 0.90625 0.0379833
726 2 0.229167 0.90625 0.0759665
727 2 0.125 0.875 0.11395
728 2 0.208333 0.875 0.151933
729 2 0.166667 0.875 0.189916
730 2 0.1875 0.90625 0.11395
731 2 0.145833 0.90625 0.151933
732 2 0.229167 0.90625 0.189916
733 2 0.125 0.875 0.2279
734 2 0.208333 0.875 0.265883
735 2 0.166667 0.875 0.303866
736 2 0.1875 0.90625 0.2279
737 2 0.145833 0.90625 0.265883
738 2 0.229167 0.90625 0.303866
739 2 0.125 0.875 0.341849
740 2 0.208333 0.875 0.379833
741 2 0.166667 0.875 0.417816
742 2 0.1875 0.90625 0.341849
743 2 0.145833 0.90625 0.379833
744 2 0.229167 0.90625 0.417816
745 2 0.125 0.9375 0
746 2 0.208333 0.9375 0.0379833
747 2 0.166667 0.9375 0.0759665
748 2 0.1875 0.96875 0
749 2 0.145833 0.96875 0.0379833
750 2 0.229167 0.96875 0.0759665
751 2 0.125 0.9375 0.11395
752 2 0.208333 0.9375 0.151933
753 2 0.166667 0.9375 0.189916
754 2 0.1875 0.96875 0.11395
755 2 0.145833 0.96875 0.151933
756 2 0.229167 0.96875 0.189916
757 2 0.125 0.9375 0.2279
758 2 0.208333 0.9375 0.265883
759 2 0.166667 0.9375 0.303866
760 2 0.1875 0.96875 0.2279
761 2 0.145833 0.96875 0.265883
762 2 0.229167 0.96875 0.303866
763 2 0.125 0.9375 0.341849
764 2 0.208333 0.9375 0.379833
765 2 0.166667 0.9375 0.417816
766 2 0.1875 0.96875 0.341849
767 2 0.145833 0.96875 0.379833
768 2 0.229167 0.96875 0.417816
769 2 0.25 0 0
770 2 0.333333 0 0.0379833
771 2 0.291667 0 0.0759665
772 2 0.3125 0.03125 0
773 2 0.270833 0.03125 0.0379833
774 2 0.354167 0.03125 0.0759665
775 2 0.25 0 0.11395
776 2 0.333333 0 0.151933
777 2 0.291667 0 0.189916
778 2 0.3125 0.03125 0.11395
779 2 0.270833 0.03125 0.151933
780 2 0.354167 0.03125 0.189916
781 2 0.25 0 0.2279
782 2 0.333333 0 0.265883
783 2 0.291667 0 0.303866
784 2 0.3125 0.03125 0.2279
785 2 0.270833 0.03125 0.265883
786 2 0.354167 0.03125 0.303866
787 2 0.25 0 0.341849
788 2 0.333333 0 0.379833
789 2 0.291667 0 0.417816
790 2 0.3125 0.03125 0.341849
791 2 0.270833 0.03125 0.379833
792 2 0.354167 0.03125 0.417816
793 2 0.25 0.0625 0
794 2 0.333333 0.0625 0.0379833
795 2 0.291667 0.0625 0.0759665
796 2 0.3125 0.09375 0
797 2 0.270833 0.09375 0.0379833
798 2 0.354167 0.09375 0.0759665
799 2 0.25 0.0625 0.11395
800 2 0.333333 0.0625 0.151933
801 2 0.291667 0.0625 0.189916
802 2 0.3125 0.09375 0.11395
803 2 0.270833 0.09375 0.151933
804 2 0.354167 0.09375 0.189916
805 2 0.25 0.0625 0.2279
806 2 0.333333 0.0625 0.265883
807 2 0.291667 0.0625 0.303866
808 2 0.3125 0.09375 0.2279
809 2 0.270833 0.09375 0.265883
810 2 0.354167 0.09375 0.303866
811 2 0.25 0.0625 0.341849
812 2 0.333333 0.0625 0.379833
813 2 0.291667 0.0625 0.417816
814 2 0.3125 0.09375 0.341849
815 2 0.270833 0.09375 0.379833
816 2 0.354167 0.09375 0.417816
817 2 0.25 0.125 0
818 2 0.333333 0.125 0.0379833
819 2 0.291667 0.125 0.0759665
820 2 0.3125 0.15625 0
821 2 0.270833 0.15625 0.0379833
822 2 0.354167 0.15625 0.0759665
823 2 0.25 0.125 0.11395
824 2 0.333333 0.125 0.151933
825 2 0.291667 0.125 0.189916
826 2 0.3125 0.15625 0.11395
827 2 0.270833 0.15625 0.151933
828 2 0.354167 0.15625 0.189916
829 2 0.25 0.125 0.2279
830 2 0.333333 0.125 0.265883
831 2 0.291667 0.125 0.303866
832 2 0.3125 0.15625 0.2279
833 2 0.270833 0.15625 0.265883
834 2 0.354167 0.15625 0.303866
835 2 0.25 0.125 0.341849
836 2 0.333333 0.125 0.379833
837 2 0.291667 0.125 0.417816
838 2 0.3125 0.15625 0.341849
839 2 0.270833 0.15625 0.379833
840 2 0.354167 0.15625 0.417816
841 2 0.25 0.1875 0
842 2 0.333333 0.1875 0.0379833
843 2 0.291667 0.1875 0.0759665
844 2 0.3125 0.21875 0
845 2 0.270833 0.21875 0.0379833
846 2 0.354167 0.21875 0.0759665
847 2 0.25 0.1875 0.11395
848 2 0.333333 0.1875 0.151933
849 2 0.291667 0.1875 0.189916
850 2 0.3125 0.21875 0.11395
851 2 0.270833 0.21875 0.151933
852 2 0.354167 0.21875 0.189916
853 2 0.25 0.1875 0.2279
854 2 0.333333 0.1875 0.265883
855 2 0.291667 0.1875 0.303866
856 2 0.3125 0.21875 0.2279
857 2 0.270833 0.21875 0.265883
858 2 0.354167 0.21875 0.303866
859 2 0.25 0.1875 0.341849
860 2 0.333333 0.1875 0.379833
861 2 0.291667 0.1875 0.417816
862 2 0.3125 0.21875 0.341849
863 2 0.270833 0.21875 0.379833
864 2 0.354167 0.21875 0.417816
865 2 0.25 0.25 0
866 2 0.333333 0.25 0.0379833
867 2 0.291667 0.25 0.0759665
868 2 0.3125 0.28125 0
869 2 0.270833 0.28125 0.0379833
870 2 0.354167 0.28125 0.0759665
871 2 0.25 0.25 0.11395
872 2 0.333333 0.25 0.151933
873 2 0.291667 0.25 0.189916
874 2 0.3125 0.28125 0.11395
875 2 0.270833 0.28125 0.151933
876 2 0.354167 0.28125 0.189916
877 2 0.25 0.25 0.2279
878 2 0.333333 0.25 0.265883
879 2 0.291667 0.25 0.303866
880 2 0.3125 0.28125 0.2279
881 2 0.270833 0.28125 0.265883
882 2 0.354167 0.28125 0.303866
883 2 0.25 0.25 0.341849
884 2 0.333333 0.25 0.379833
885 2 0.291667 0.25 0.417816
886 2 0.3125 0.28125 0.341849
887 2 0.270833 0.28125 0.379833
888 2 0.354167 0.28125 0.417816
889 2 0.25 0.3125 0
890 2 0.333333 0.3125 0.0379833
891 2 0.291667 0.3125 0.0759665
892 2 0.3125 0.34375 0
893 2 0.270833 0.34375 0.0379833
894 2 0.354167 0.34375 0.0759665
895 2 0.25 0.3125 0.11395
896 2 0.333333 0.3125 0.151933
897 2 0.291667 0.3125 0.189916
898 2 0.3125 0.34375 0.11395
899 2 0.270833 0.34375 0.151933
900 2 0.354167 0.34375 0.189916
901 2 0.25 0.3125 0.2279
902 2 0.333333 0.3125 0.265883
903 2 0.291667 0.3125 0.303866
904 2 0.3125 0.34375 0.2279
905 2 0.270833 0.34375 0.265883
906 2 0.354167 0.34375 0.303866
907 2 0.25 0.3125 0.341849
908 2 0.333333 0.3125 0.379833
909 2 0.291667 0.3125 0.417816
910 2 0.3125 0.34375 0.341849
911 2 0.270833 0.34375 0.379833
912 2 0.354167 0.34375 0.417816
913 2 0.25 0.375 0
914 2 0.333333 0.375 0.0379833
915 2 0.291667 0.375 0.0759665
916 2 0.3125 0.40625 0
917 2 0.270833 0.40625 0.0379833
918 2 0.354167 0.40625 0.0759665
919 2 0.25 0.375 0.11395
920 2 0.333333 0.375 0.151933
921 2 0.291667 0.375 0.189916
922 2 0.3125 0.40625 0.11395
923 2 0.270833 0.40625 0.151933
924 2 0.354167 0.40625 0.189916
925 2 0.25 0.375 0.2279
926 2 0.333333 0.375 0.265883
927 2 0.291667 0.375 0.303866
928 2 0.3125 0.40625 0.2279
929 2 0.270833 0.40625 0.265883
930 2 0.354167 0.40625 0.303866
931 2 0.25 0.375 0.341849
932 2 0.333333 0.375 0.379833
933 2 0.291667 0.375 0.417816
934 2 0.3125 0.40625 0.341849
935 2 0.270833 0.40625 0.379833
936 2 0.354167 0.40625 0.417816
937 2 0.25 0.4375 0
938 2 0.333333 0.4375 0.0379833
939 2 0.291667 0.4375 0.0759665
940 2 0.3125 0.46875 0
941 2 0.270833 0.46875 0.0379833
942 2 0.354167 0.46875 0.0759665
943 2 0.25 0.4375 0.11395
944 2 0.333333 0.4375 0.151933
945 2 0.291667 0.4375 0.189916
946 2 0.3125 0.46875 0.11395
947 2 0.270833 0.46875 0.151933
948 2 0.354167 0.46875 0.189916
949 2 0.25 0.4375 0.2279
950 2 0.333333 0.4375 0.265883
951 2 0.291667 0.4375 0.303866
952 2 0.3125 0.46875 0.2279
953 2 0.270833 0.46875 0.265883
954 2 0.354167 0.46875 0.303866
955 2 0.25 0.4375 0.341849
956 2 0.333333 0.4375 0.379833
957 2 0.291667 0.4375 0.417816
958 2 0.3125 0.46875 0.341849
959 2 0.270833 0.46875 0.379833
960 2 0.354167 0.46875 0.417816
961 2 0.25 0.5 0
962 2 0.333333 0.5 0.0379833
963 2 0.291667 0.5 0.0759665
964 2 0.3125 0.53125 0
965 2 0.270833 0.53125 0.0379833
966 2 0.354167 0.53125 0.0759665
967 2 0.25 0.5 0.11395
968 2 0.333333 0.5 0.151933
969 2 0.291667 0.5 0.189916
970 2 0.3125 0.53125 0.11395
971 2 0.270833 0.53125 0.151933
972 2 0.354167 0.53125 0.189916
973 2 0.25 0.5 0.2279
974 2 0.333333 0.5 0.265883
975 2 0.291667 0.5 0.303866
976 2 0.3125 0.53125 0.2279
977 2 0.270833 0.53125 0.265883
978 2 0.354167 0.53125 0.303866
979 2 0.25 0.5 0.341849
980 2 0.333333 0.5 0.379833
981 2 0.291667 0.5 0.417816
982 2 0.3125 0.53125 0.341849
983 2 0.270833 0.53125 0.379833
984 2 0.354167 0.53125 0.417816
985 2 0.25 0.5625 0
986 2 0.333333 0.5625 0.0379833
987 2 0.291667 0.5625 0.0759665
988 2 0.3125 0.59375 0
989 2 0.270833 0.59375 0.0379833
990 2 0.354167 0.59375 0.0759665
991 2 0.25 0.5625 0.11395
992 2 0.333333 0.5625 0.151933
993 2 0.291667 0.5625 0.189916
994 2 0.3125 0.59375 0.11395
995 2 0.270833 0.59375 0.151933
996 2 0.354167 0.59375 0.189916
997 2 0.25 0.5625 0.2279
998 2 0.333333 0.5625 0.265883
999 2 0.291667 0.5625 0.303866
1000 2 0.3125 0.59375 0.2279
1001 2 0.270833 0.59375 0.265883
1002 2 0.354167 0.59375 0.303866
1003 2 0.25 0.5625 0.341849
1004 2 0.333333 0.5625 0.379833
1005 2 0.291667 0.5625 0.417816
1006 2 0.3125 0.59375 0.341849
1007 2 0.270833 0.59375 0.379833
1008 2 0.354167 0.59375 0.417816
1009 2 0.25 0.625 0
1010 2 0.333333 0.625 0.0379833
1011 2 0.291667 0.625 0.0759665
1012 2 0.3125 0.65625 0
1013 2 0.270833 0.65625 0.0379833
1014 2 0.354167 0.65625 0.0759665
1015 2 0.25 0.625 0.11395
1016 2 0.333333 0.625 0.151933