 vasp.5.4.4.18Apr17-6-g9f103f2a35 (build Nov 06 2023 00:46:14) complex          
  
 executed on             LinuxIFC date 2025.07.24  15:18:47
 running on   64 total cores
 distrk:  each k-point on   64 cores,    1 groups
 distr:  one band on NCORES_PER_BAND=   8 cores,    8 groups


--------------------------------------------------------------------------------------------------------


 INCAR:
 POTCAR:    PAW_PBE Pt 04Feb2005                  
 POTCAR:    PAW_PBE O 08Apr2002                   
 POTCAR:    PAW_PBE Pt 04Feb2005                  
   VRHFIN =Pt: s1d9                                                             
   LEXCH  = PE                                                                  
   EATOM  =   729.1176 eV,   53.5886 Ry                                         
                                                                                
   TITEL  = PAW_PBE Pt 04Feb2005                                                
   LULTRA =        F    use ultrasoft PP ?                                      
   IUNSCR =        1    unscreen: 0-lin 1-nonlin 2-no                           
   RPACOR =    2.330    partial core radius                                     
   POMASS =  195.080; ZVAL   =   10.000    mass and valenz                      
   RCORE  =    2.600    outmost cutoff radius                                   
   RWIGS  =    2.750; RWIGS  =    1.455    wigner-seitz radius (au A)           
   ENMAX  =  230.283; ENMIN  =  172.712 eV                                      
   ICORE  =        3    local potential                                         
   LCOR   =        T    correct aug charges                                     
   LPAW   =        T    paw PP                                                  
   EAUG   =  358.966                                                            
   DEXC   =    0.000                                                            
   RMAX   =    2.658    core radius for proj-oper                               
   RAUG   =    1.300    factor for augmentation sphere                          
   RDEP   =    2.761    radius for radial grids                                 
   RDEPT  =    2.203    core radius for aug-charge                              
                                                                                
   Atomic configuration                                                         
   16 entries                                                                   
     n  l   j            E        occ.                                          
     1  0  0.50    -78401.1885   2.0000                                         
     2  0  0.50    -13770.7750   2.0000                                         
     2  1  1.50    -11931.0468   6.0000                                         
     3  0  0.50     -3234.7234   2.0000                                         
     3  1  1.50     -2699.2216   6.0000                                         
     3  2  2.50     -2119.5714  10.0000                                         
     4  0  0.50      -695.1528   2.0000                                         
     4  1  1.50      -519.6034   6.0000                                         
     4  2  2.50      -306.6786  10.0000                                         
     4  3  3.50       -70.1041  14.0000                                         
     5  0  0.50      -101.7747   2.0000                                         
     5  1  1.50       -55.9873   6.0000                                         
     5  2  2.50        -6.1423   9.0000                                         
     6  0  0.50        -5.6573   1.0000                                         
     6  1  1.50        -6.8029   0.0000                                         
     5  3  2.50        -1.3606   0.0000                                         
   Description                                                                  
     l       E           TYP  RCUT    TYP  RCUT                                 
     2     -6.1423404     23  2.500                                             
     2     -7.5029230     23  2.500                                             
     0     -5.6573207     23  2.500                                             
     0      0.7416693     23  2.500                                             
     1     -2.7211652     23  2.600                                             
     1     20.4087390     23  2.600                                             
     3     -1.3605826     23  2.500                                             
  local pseudopotential read in
  partial core-charges read in
  partial kinetic energy density read in
  atomic valenz-charges read in
  non local Contribution for L=           2  read in
    real space projection operators read in
  non local Contribution for L=           2  read in
    real space projection operators read in
  non local Contribution for L=           0  read in
    real space projection operators read in
  non local Contribution for L=           0  read in
    real space projection operators read in
  non local Contribution for L=           1  read in
    real space projection operators read in
  non local Contribution for L=           1  read in
    real space projection operators read in
    PAW grid and wavefunctions read in
 
   number of l-projection  operators is LMAX  =           6
   number of lm-projection operators is LMMAX =          18
 
 POTCAR:    PAW_PBE O 08Apr2002                   
   VRHFIN =O: s2p4                                                              
   LEXCH  = PE                                                                  
   EATOM  =   432.3788 eV,   31.7789 Ry                                         
                                                                                
   TITEL  = PAW_PBE O 08Apr2002                                                 
   LULTRA =        F    use ultrasoft PP ?                                      
   IUNSCR =        1    unscreen: 0-lin 1-nonlin 2-no                           
   RPACOR =    1.200    partial core radius                                     
   POMASS =   16.000; ZVAL   =    6.000    mass and valenz                      
   RCORE  =    1.520    outmost cutoff radius                                   
   RWIGS  =    1.550; RWIGS  =    0.820    wigner-seitz radius (au A)           
   ENMAX  =  400.000; ENMIN  =  300.000 eV                                      
   ICORE  =        2    local potential                                         
   LCOR   =        T    correct aug charges                                     
   LPAW   =        T    paw PP                                                  
   EAUG   =  605.392                                                            
   DEXC   =    0.000                                                            
   RMAX   =    1.553    core radius for proj-oper                               
   RAUG   =    1.300    factor for augmentation sphere                          
   RDEP   =    1.550    radius for radial grids                                 
   RDEPT  =    1.329    core radius for aug-charge                              
                                                                                
   Atomic configuration                                                         
    4 entries                                                                   
     n  l   j            E        occ.                                          
     1  0  0.50      -514.6923   2.0000                                         
     2  0  0.50       -23.9615   2.0000                                         
     2  1  0.50        -9.0305   4.0000                                         
     3  2  1.50        -9.5241   0.0000                                         
   Description                                                                  
     l       E           TYP  RCUT    TYP  RCUT                                 
     0    -23.9615318     23  1.200                                             
     0     -9.5240782     23  1.200                                             
     1     -9.0304911     23  1.520                                             
     1      8.1634956     23  1.520                                             
     2     -9.5240782      7  1.500                                             
  local pseudopotential read in
  partial core-charges read in
  partial kinetic energy density read in
  kinetic energy density of atom read in
  atomic valenz-charges read in
  non local Contribution for L=           0  read in
    real space projection operators read in
  non local Contribution for L=           0  read in
    real space projection operators read in
  non local Contribution for L=           1  read in
    real space projection operators read in
  non local Contribution for L=           1  read in
    real space projection operators read in
    PAW grid and wavefunctions read in
 
   number of l-projection  operators is LMAX  =           4
   number of lm-projection operators is LMMAX =           8
 
 Optimization of the real space projectors (new method)

 maximal supplied QI-value         = 14.36
 optimisation between [QCUT,QGAM] = [ 10.77, 21.69] = [ 32.49,131.70] Ry 
 Optimized for a Real-space Cutoff    1.46 Angstroem

   l    n(q)    QCUT    max X(q) W(low)/X(q) W(high)/X(q)  e(spline) 
   2      9    10.771    66.195    0.13E-03    0.31E-03    0.27E-06
   2      9    10.771    64.643    0.13E-03    0.32E-03    0.28E-06
   0     10    10.771    95.520    0.41E-04    0.13E-03    0.15E-06
   0     10    10.771    63.403    0.40E-04    0.12E-03    0.14E-06
   1      9    10.771    19.961    0.42E-03    0.19E-03    0.28E-06
   1      9    10.771    13.289    0.35E-03    0.16E-03    0.23E-06
 Optimization of the real space projectors (new method)

 maximal supplied QI-value         = 24.76
 optimisation between [QCUT,QGAM] = [ 10.64, 21.54] = [ 31.73,129.89] Ry 
 Optimized for a Real-space Cutoff    1.23 Angstroem

   l    n(q)    QCUT    max X(q) W(low)/X(q) W(high)/X(q)  e(spline) 
   0      8    10.645    20.381    0.38E-03    0.60E-03    0.15E-06
   0      8    10.645    15.268    0.40E-03    0.65E-03    0.17E-06
   1      7    10.645     5.964    0.30E-03    0.63E-03    0.18E-06
   1      7    10.645     5.382    0.24E-03    0.53E-03    0.16E-06
  PAW_PBE Pt 04Feb2005                  :
 energy of atom  1       EATOM= -729.1176
 kinetic energy error for atom=    0.0051 (will be added to EATOM!!)
  PAW_PBE O 08Apr2002                   :
 energy of atom  2       EATOM= -432.3788
 kinetic energy error for atom=    0.0389 (will be added to EATOM!!)
 
 
 POSCAR: Pt  O                                   
  positions in cartesian coordinates
  No initial velocities read in
 exchange correlation table for  LEXCH =        8
   RHO(1)=    0.500       N(1)  =     2000
   RHO(2)=  100.500       N(2)  =     4000

 VTST: version 3.2, (02/03/18)

 CHAIN: initializing optimizer
 
 OPT: Using VASP QUASI-newton optimizer
 CHAIN: Read ICHAIN            0
 
 POSCAR: Pt  O                                   
  positions in cartesian coordinates
  No initial velocities read in
 


--------------------------------------------------------------------------------------------------------


 ion  position               nearest neighbor table
   1  0.000  0.000  0.000-   4 2.76  28 2.76  36 2.76  60 2.76  34 2.79  29 2.80   5 2.80  25 2.81
                             9 2.81
   2  0.333  0.000  0.092-   5 2.76  29 2.76  37 2.76  61 2.76   3 2.78  33 2.79   4 2.80  28 2.80
                            26 2.81  10 2.81  30 2.81   6 2.89
   3  0.169  1.000  0.183-  30 2.75  62 2.77  38 2.77   6 2.78   2 2.78  11 2.80  27 2.80  29 2.81
                             5 2.81   8 2.82  32 2.84   7 2.84
   4  0.250  0.125  0.000-   1 2.76   9 2.76  33 2.76  41 2.76   5 2.79   2 2.80  10 2.80  12 2.81
                            28 2.81
   5  0.083  0.125  0.092-   2 2.76  10 2.76  34 2.76  42 2.76  38 2.78   4 2.79  11 2.79   9 2.80
                             1 2.80  29 2.81  13 2.81   3 2.81
   6  0.419  0.127  0.187-  43 2.73  11 2.76  35 2.76   3 2.78   8 2.78  14 2.79  39 2.81  30 2.83
                            47 2.83  37 2.84  10 2.87   2 2.89
   7  0.001  0.999  0.277-   8 2.74  40 2.74  64 2.75  32 2.75  31 2.78  15 2.79  62 2.83   3 2.84
                            38 2.85
   8  0.248  0.123  0.277-   7 2.74  15 2.74   6 2.78  39 2.79  32 2.79  47 2.79   3 2.82  16 2.82
                            11 2.84
   9  0.000  0.250  0.000-   4 2.76  12 2.76  36 2.76  44 2.76  42 2.79  13 2.80   5 2.80  17 2.81
                             1 2.81
  10  0.333  0.250  0.092-   5 2.76  13 2.76  37 2.76  45 2.76  11 2.78  41 2.79   4 2.80  12 2.80
                            18 2.81   2 2.81  14 2.81   6 2.87
  11  0.167  0.249  0.183-  38 2.76  46 2.76   6 2.76  14 2.77  16 2.77  10 2.78   5 2.79   3 2.80
                            13 2.80  19 2.83  15 2.84   8 2.84
  12  0.250  0.375  0.000-   9 2.76  17 2.76  41 2.76  49 2.76  13 2.79  10 2.80  18 2.80   4 2.81
                            20 2.81
  13  0.083  0.375  0.092-  46 2.76  18 2.76  42 2.76  10 2.76  50 2.76  12 2.79  19 2.80  11 2.80
                            17 2.80   9 2.80  21 2.81   5 2.81
  14  0.417  0.375  0.183-  51 2.76  43 2.76  11 2.77  19 2.77  22 2.79   6 2.79  45 2.79  16 2.80
                            10 2.81  18 2.81  55 2.92  47 2.92
  15  1.000  0.248  0.277-  48 2.71  16 2.72  40 2.74   8 2.74   7 2.79  38 2.83  11 2.84  23 2.85
                            46 2.86
  16  0.243  0.375  0.274-  15 2.72  23 2.72  11 2.77  19 2.77  14 2.80  24 2.82   8 2.82  47 2.83
                            55 2.83
  17  0.000  0.500  0.000-  12 2.76  20 2.76  44 2.76  52 2.76  50 2.79  21 2.80  13 2.80  25 2.81
                             9 2.81
  18  0.333  0.500  0.092-  13 2.76  21 2.76  45 2.76  53 2.76  19 2.78  49 2.79  12 2.80  20 2.80
                            26 2.81  10 2.81  14 2.81  22 2.87
  19  0.167  0.501  0.183-  54 2.76  46 2.76  22 2.76  14 2.77  16 2.77  18 2.78  21 2.79  27 2.80
                            13 2.80  11 2.83  23 2.84  24 2.84
  20  0.250  0.625  0.000-  17 2.76  25 2.76  49 2.76  57 2.76  21 2.79  18 2.80  26 2.80  12 2.81
                            28 2.81
  21  0.083  0.625  0.092-  18 2.76  26 2.76  50 2.76  58 2.76  54 2.78  20 2.79  19 2.79  17 2.80
                            25 2.80  29 2.81  13 2.81  27 2.81
  22  0.419  0.623  0.187-  51 2.73  19 2.76  59 2.76  27 2.78  24 2.78  14 2.79  63 2.81  30 2.83
                            55 2.83  53 2.84  18 2.87  26 2.89
  23  1.000  0.502  0.277-  48 2.71  16 2.72  56 2.74  24 2.74  31 2.79  54 2.83  19 2.84  15 2.85
                            46 2.86
  24  0.248  0.626  0.277-  31 2.74  23 2.74  22 2.78  63 2.79  32 2.79  55 2.79  27 2.82  16 2.82
                            19 2.84
  25  0.000  0.750  0.000-  20 2.76  28 2.76  52 2.76  60 2.76  58 2.79  29 2.80  21 2.80  17 2.81
                             1 2.81
  26  0.333  0.750  0.092-  21 2.76  29 2.76  53 2.76  61 2.76  27 2.78  57 2.79  20 2.80  28 2.80
                             2 2.81  18 2.81  30 2.81  22 2.89
  27  0.169  0.750  0.183-  30 2.75  62 2.77  54 2.77  22 2.78  26 2.78  19 2.80   3 2.80  29 2.81
                            21 2.81  24 2.82  32 2.84  31 2.84
  28  0.250  0.875  0.000-   1 2.76  25 2.76  33 2.76  57 2.76  29 2.79  26 2.80   2 2.80  20 2.81
                             4 2.81
  29  0.083  0.875  0.092-   2 2.76  26 2.76  34 2.76  58 2.76  62 2.78  28 2.79  25 2.80   1 2.80
                             5 2.81  21 2.81   3 2.81  27 2.81
  30  0.418  0.875  0.183-  27 2.75   3 2.75  35 2.76  59 2.76  61 2.78  26 2.81   2 2.81  22 2.83
                             6 2.83  32 2.84  39 2.84  63 2.84
  31  0.001  0.751  0.277-  24 2.74  56 2.74  64 2.75  32 2.75   7 2.78  23 2.79  62 2.83  27 2.84
                            54 2.85
  32  0.250  0.875  0.277-  31 2.75   7 2.75  39 2.75  63 2.75  24 2.79   8 2.79  30 2.84  27 2.84
                             3 2.84
  33  0.500  0.000  0.000-   4 2.76  28 2.76  36 2.76  60 2.76   2 2.79  37 2.80  61 2.80  41 2.81
                            57 2.81
  34  0.833  0.000  0.092-   5 2.76  29 2.76  37 2.76  61 2.76   1 2.79  35 2.79  60 2.80  36 2.80
                            38 2.80  42 2.81  58 2.81  62 2.81
  35  0.667  1.000  0.184-  30 2.76   6 2.76  38 2.77  62 2.77  34 2.79  59 2.80  43 2.81  61 2.81
                            40 2.81  37 2.82  64 2.83  39 2.84
  36  0.750  0.125  0.000-   1 2.76   9 2.76  33 2.76  41 2.76  37 2.79  34 2.80  42 2.80  44 2.81
                            60 2.81
  37  0.583  0.125  0.092-   2 2.76  10 2.76  34 2.76  42 2.76  36 2.79  41 2.80  33 2.80  45 2.81
                            61 2.81  35 2.82  43 2.83   6 2.84
  38  0.918  0.124  0.183-  11 2.76  35 2.77   3 2.77  43 2.78   5 2.78  62 2.80  34 2.80  40 2.81
                            42 2.81  46 2.81  15 2.83   7 2.85
  39  0.500  0.998  0.278-  32 2.75  63 2.75  64 2.76  40 2.78   8 2.79   6 2.81  47 2.83  35 2.84
                            30 2.84
  40  0.752  0.123  0.276-  15 2.74   7 2.74  39 2.78  64 2.78  47 2.79  38 2.81  35 2.81  43 2.82
                            48 2.83
  41  0.500  0.250  0.000-   4 2.76  12 2.76  36 2.76  44 2.76  10 2.79  37 2.80  45 2.80  33 2.81
                            49 2.81
  42  0.833  0.250  0.092-   5 2.76  13 2.76  37 2.76  45 2.76   9 2.79  46 2.79  36 2.80  44 2.80
                            34 2.81  50 2.81  38 2.81  43 2.82
  43  0.666  0.250  0.185-   6 2.73  14 2.76  38 2.78  46 2.78  48 2.79  35 2.81  51 2.81  42 2.82
                            40 2.82  37 2.83  45 2.83  47 2.87
  44  0.750  0.375  0.000-   9 2.76  17 2.76  41 2.76  49 2.76  45 2.79  42 2.80  50 2.80  36 2.81
                            52 2.81
  45  0.583  0.375  0.092-  10 2.76  18 2.76  42 2.76  50 2.76  44 2.79  14 2.79  49 2.80  41 2.80
                            37 2.81  53 2.81  51 2.83  43 2.83
  46  0.918  0.375  0.183-  19 2.76  11 2.76  48 2.76  13 2.76  51 2.78  43 2.78  42 2.79  50 2.79
                            54 2.81  38 2.81  23 2.86  15 2.86
  47  0.501  0.250  0.280-  65 2.01  40 2.79   8 2.79  55 2.81  39 2.83  48 2.83   6 2.83  16 2.83
                            43 2.87  14 2.92
  48  0.758  0.375  0.274-  23 2.71  15 2.71  46 2.76  43 2.79  51 2.79  55 2.83  47 2.83  40 2.83
                            56 2.83
  49  0.500  0.500  0.000-  12 2.76  20 2.76  44 2.76  52 2.76  18 2.79  45 2.80  53 2.80  41 2.81
                            57 2.81
  50  0.833  0.500  0.092-  13 2.76  21 2.76  45 2.76  53 2.76  17 2.79  46 2.79  52 2.80  44 2.80
                            42 2.81  58 2.81  54 2.81  51 2.82
  51  0.666  0.500  0.185-  22 2.73  14 2.76  54 2.78  46 2.78  48 2.79  59 2.81  43 2.81  50 2.82
                            56 2.82  53 2.83  45 2.83  55 2.87
  52  0.750  0.625  0.000-  17 2.76  25 2.76  49 2.76  57 2.76  53 2.79  50 2.80  58 2.80  44 2.81
                            60 2.81
  53  0.583  0.625  0.092-  18 2.76  26 2.76  50 2.76  58 2.76  52 2.79  57 2.80  49 2.80  45 2.81
                            61 2.81  59 2.82  51 2.83  22 2.84
  54  0.918  0.626  0.183-  19 2.76  59 2.77  27 2.77  51 2.78  21 2.78  62 2.80  58 2.80  56 2.81
                            50 2.81  46 2.81  23 2.83  31 2.85
  55  0.501  0.500  0.280-  66 2.01  56 2.79  24 2.79  47 2.81  63 2.83  48 2.83  22 2.83  16 2.83
                            51 2.87  14 2.92
  56  0.752  0.627  0.276-  23 2.74  31 2.74  63 2.78  64 2.78  55 2.79  54 2.81  59 2.81  51 2.82
                            48 2.83
  57  0.500  0.750  0.000-  20 2.76  28 2.76  52 2.76  60 2.76  26 2.79  53 2.80  61 2.80  33 2.81
                            49 2.81
  58  0.833  0.750  0.092-  21 2.76  29 2.76  53 2.76  61 2.76  25 2.79  59 2.79  60 2.80  52 2.80
                            54 2.80  34 2.81  50 2.81  62 2.81
  59  0.667  0.750  0.184-  30 2.76  22 2.76  54 2.77  62 2.77  58 2.79  35 2.80  51 2.81  61 2.81
                            56 2.81  53 2.82  64 2.83  63 2.84
  60  0.750  0.875  0.000-   1 2.76  25 2.76  33 2.76  57 2.76  61 2.79  58 2.80  34 2.80  52 2.81
                            36 2.81
  61  0.583  0.875  0.092-   2 2.76  26 2.76  34 2.76  58 2.76  30 2.78  60 2.79  33 2.80  57 2.80
                            53 2.81  37 2.81  35 2.81  59 2.81
  62  0.918  0.875  0.184-   3 2.77  27 2.77  35 2.77  59 2.77  29 2.78  54 2.80  38 2.80  58 2.81
                            34 2.81  64 2.82   7 2.83  31 2.83
  63  0.500  0.752  0.278-  32 2.75  39 2.75  64 2.76  56 2.78  24 2.79  22 2.81  55 2.83  59 2.84
                            30 2.84
  64  0.752  0.875  0.277-  31 2.75   7 2.75  39 2.76  63 2.76  56 2.78  40 2.78  62 2.82  59 2.83
                            35 2.83
  65  0.500  0.314  0.356-  66 1.37  47 2.01
  66  0.500  0.436  0.356-  65 1.37  55 2.01
 

IMPORTANT INFORMATION: All symmetrisations will be switched off!
NOSYMM: (Re-)initialisation of all symmetry stuff for point group C_1.

 
 
 KPOINTS: K-Spacing Value to Generate K-Mesh: 0.03

Automatic generation of k-mesh.
Space group operators:
 irot       det(A)        alpha          n_x          n_y          n_z        tau_x        tau_y        tau_z
    1     1.000000     0.000001     1.000000     0.000000     0.000000     0.000000     0.000000     0.000000
 
 Subroutine IBZKPT returns following result:
 ===========================================
 
 Found      5 irreducible k-points:
 
 Following reciprocal coordinates:
            Coordinates               Weight
  0.000000  0.000000  0.000000      1.000000
  0.333333  0.000000  0.000000      2.000000
  0.000000  0.333333  0.000000      2.000000
  0.333333  0.333333  0.000000      2.000000
 -0.333333  0.333333  0.000000      2.000000
 
 Following cartesian coordinates:
            Coordinates               Weight
  0.000000  0.000000  0.000000      1.000000
  0.035001  0.000000  0.000000      2.000000
  0.000000  0.029706  0.000000      2.000000
  0.035001  0.029706  0.000000      2.000000
 -0.035001  0.029706  0.000000      2.000000
 


--------------------------------------------------------------------------------------------------------




 Dimension of arrays:
   k-points           NKPTS =      5   k-points in BZ     NKDIM =      5   number of bands    NBANDS=    392
   number of dos      NEDOS =    301   number of ions     NIONS =     66
   non local maximal  LDIM  =      6   non local SUM 2l+1 LMDIM =     18
   total plane-waves  NPLWV = 420000
   max r-space proj   IRMAX =   2120   max aug-charges    IRDMAX=   9720
   dimension x,y,z NGX =    50 NGY =   60 NGZ =  140
   dimension x,y,z NGXF=   100 NGYF=  120 NGZF=  280
   support grid    NGXF=   100 NGYF=  120 NGZF=  280
   ions per type =              64   2
   NGX,Y,Z   is equivalent  to a cutoff of   8.73,  8.89,  9.31 a.u.
   NGXF,Y,Z  is equivalent  to a cutoff of  17.46, 17.78, 18.62 a.u.

 SYSTEM =  Pt111 O2 adsorption system              
 POSCAR =  Pt  O                                   

 Startparameter for this run:
   NWRITE =      2    write-flag & timer
   PREC   = normal    normal or accurate (medium, high low for compatibility)
   ISTART =      0    job   : 0-new  1-cont  2-samecut
   ICHARG =      1    charge: 1-file 2-atom 10-const
   ISPIN  =      1    spin polarized calculation?
   LNONCOLLINEAR =      F non collinear calculations
   LSORBIT =      F    spin-orbit coupling
   INIWAV =      1    electr: 0-lowe 1-rand  2-diag
   LASPH  =      F    aspherical Exc in radial PAW
   METAGGA=      F    non-selfconsistent MetaGGA calc.

 Electronic Relaxation 1
   ENCUT  =  450.0 eV  33.07 Ry    5.75 a.u.  16.47 19.41 43.24*2*pi/ulx,y,z
   ENINI  =  450.0     initial cutoff
   ENAUG  =  605.4 eV  augmentation charge cutoff
   NELM   =     60;   NELMIN=  2; NELMDL= -5     # of ELM steps 
   EDIFF  = 0.1E-05   stopping-criterion for ELM
   LREAL  =      T    real-space projection
   NLSPLINE    = F    spline interpolate recip. space projectors
   LCOMPAT=      F    compatible to vasp.4.4
   GGA_COMPAT  = T    GGA compatible to vasp.4.4-vasp.4.6
   LMAXPAW     = -100 max onsite density
   LMAXMIX     =    2 max onsite mixed and CHGCAR
   VOSKOWN=      0    Vosko Wilk Nusair interpolation
   ROPT   =   -0.00050  -0.00050
 Ionic relaxation
   EDIFFG = -.2E-01   stopping-criterion for IOM
   NSW    =    200    number of steps for IOM
   NBLOCK =      1;   KBLOCK =    200    inner block; outer block 
   IBRION =      1    ionic relax: 0-MD 1-quasi-New 2-CG
   NFREE  =      0    steps in history (QN), initial steepest desc. (CG)
   ISIF   =      2    stress and relaxation
   IWAVPR =     11    prediction:  0-non 1-charg 2-wave 3-comb
   ISYM   =      0    0-nonsym 1-usesym 2-fastsym
   LCORR  =      T    Harris-Foulkes like correction to forces

   POTIM  = 0.2000    time-step for ionic-motion
   TEIN   =    0.0    initial temperature
   TEBEG  =    0.0;   TEEND  =   0.0 temperature during run
   SMASS  =  -3.00    Nose mass-parameter (am)
   estimated Nose-frequenzy (Omega)   =  0.10E-29 period in steps =****** mass=  -0.207E-26a.u.
   SCALEE = 1.0000    scale energy and forces
   NPACO  =    256;   APACO  = 16.0  distance and # of slots for P.C.
   PSTRESS=    0.0 pullay stress

  Mass of Ions in am
   POMASS = 195.08 16.00
  Ionic Valenz
   ZVAL   =  10.00  6.00
  Atomic Wigner-Seitz radii
   RWIGS  =  -1.00 -1.00
  virtual crystal weights 
   VCA    =   1.00  1.00
   NELECT =     652.0000    total number of electrons
   NUPDOWN=      -1.0000    fix difference up-down

 DOS related values:
   EMIN   =  10.00;   EMAX   =-10.00  energy-range for DOS
   EFERMI =   0.00
   ISMEAR =     0;   SIGMA  =   0.10  broadening in eV -4-tet -1-fermi 0-gaus

 Electronic relaxation 2 (details)
   IALGO  =     68    algorithm
   LDIAG  =      T    sub-space diagonalisation (order eigenvalues)
   LSUBROT=      F    optimize rotation matrix (better conditioning)
   TURBO    =      0    0=normal 1=particle mesh
   IRESTART =      0    0=no restart 2=restart with 2 vectors
   NREBOOT  =      0    no. of reboots
   NMIN     =      0    reboot dimension
   EREF     =   0.00    reference energy to select bands
   IMIX   =      4    mixing-type and parameters
     AMIX     =   0.40;   BMIX     =  1.00
     AMIX_MAG =   1.60;   BMIX_MAG =  1.00
     AMIN     =   0.10
     WC   =   100.;   INIMIX=   1;  MIXPRE=   1;  MAXMIX= -45

 Intra band minimization:
   WEIMIN = 0.0010     energy-eigenvalue tresh-hold
   EBREAK =  0.64E-09  absolut break condition
   DEPER  =   0.30     relativ break condition  

   TIME   =   0.40     timestep for ELM

  volume/ion in A,a.u.               =      40.48       273.16
  Fermi-wavevector in a.u.,A,eV,Ry     =   1.023059  1.933300 14.240521  1.046649
  Thomas-Fermi vector in A             =   2.156771
 
 Write flags
   LWAVE        =      F    write WAVECAR
   LDOWNSAMPLE  =      F    k-point downsampling of WAVECAR
   LCHARG       =      F    write CHGCAR
   LVTOT        =      F    write LOCPOT, total local potential
   LVHAR        =      F    write LOCPOT, Hartree potential only
   LELF         =      F    write electronic localiz. function (ELF)
   LORBIT       =      0    0 simple, 1 ext, 2 COOP (PROOUT), +10 PAW based schemes


 Dipole corrections
   LMONO  =      F    monopole corrections only (constant potential shift)
   LDIPOL =      T    correct potential (dipole corrections)
   IDIPOL =      3    1-x, 2-y, 3-z, 4-all directions 
   EPSILON=  1.0000000 bulk dielectric constant

 Exchange correlation treatment:
   GGA     =    PE    GGA type
   LEXCH   =     8    internal setting for exchange type
   VOSKOWN=      0    Vosko Wilk Nusair interpolation
   LHFCALC =     F    Hartree Fock is set to
   LHFONE  =     F    Hartree Fock one center treatment
   AEXX    =    0.0000 exact exchange contribution

 Linear response parameters
   LEPSILON=     F    determine dielectric tensor
   LRPA    =     F    only Hartree local field effects (RPA)
   LNABLA  =     F    use nabla operator in PAW spheres
   LVEL    =     F    velocity operator in full k-point grid
   LINTERFAST=   F  fast interpolation
   KINTER  =     0    interpolate to denser k-point grid
   CSHIFT  =0.1000    complex shift for real part using Kramers Kronig
   OMEGAMAX=  -1.0    maximum frequency
   DEG_THRESHOLD= 0.2000000E-02 threshold for treating states as degnerate
   RTIME   =   -0.100 relaxation time in fs
  (WPLASMAI=    0.000 imaginary part of plasma frequency in eV, 0.658/RTIME)
   DFIELD  = 0.0000000 0.0000000 0.0000000 field for delta impulse in time
 
 Orbital magnetization related:
   ORBITALMAG=     F  switch on orbital magnetization
   LCHIMAG   =     F  perturbation theory with respect to B field
   DQ        =  0.001000  dq finite difference perturbation B field
   LLRAUG    =     F  two centre corrections for induced B field



--------------------------------------------------------------------------------------------------------


 quasi-Newton-method for relaxation of ions
   using selective dynamics as specified on POSCAR
   WARNING: If single coordinates had been selected the selection of coordinates
            is made according to the corresponding   d i r e c t   coordinates!
            Don't support selection of single cartesian coordinates -- sorry ...
  !
 charge density and potential will be updated during run
 non-spin polarized calculation
 RMM-DIIS sequential band-by-band and
  variant of blocked Davidson during initial phase
 perform sub-space diagonalisation
    before iterative eigenvector-optimisation
 modified Broyden-mixing scheme, WC =      100.0
 initial mixing is a Kerker type mixing with AMIX =  0.4000 and BMIX =      1.0000
 Hartree-type preconditioning will be used
 using additional bands           66
 real space projection scheme for non local part
 use partial core corrections
 calculate Harris-corrections to forces 
   (improved forces if not selfconsistent)
 use gradient corrections 
 use of overlap-Matrix (Vanderbilt PP)
 Gauss-broadening in eV      SIGMA  =   0.10


--------------------------------------------------------------------------------------------------------


  energy-cutoff  :      450.00
  volume of cell :     2671.60
      direct lattice vectors                 reciprocal lattice vectors
     9.523436180  0.000000000  0.000000000     0.105004116  0.000000000  0.000000000
     0.000000000 11.221139680  0.000000000     0.000000000  0.089117508  0.000000000
     0.000000000  0.000000000 25.000000000     0.000000000  0.000000000  0.040000000

  length of vectors
     9.523436180 11.221139680 25.000000000     0.105004116  0.089117508  0.040000000


 
 k-points in units of 2pi/SCALE and weight: K-Spacing Value to Generate K-Mesh: 0.03
   0.00000000  0.00000000  0.00000000       0.111
   0.03500137  0.00000000  0.00000000       0.222
   0.00000000  0.02970584  0.00000000       0.222
   0.03500137  0.02970584  0.00000000       0.222
  -0.03500137  0.02970584  0.00000000       0.222
 
 k-points in reciprocal lattice and weights: K-Spacing Value to Generate K-Mesh: 0.03
   0.00000000  0.00000000  0.00000000       0.111
   0.33333333  0.00000000  0.00000000       0.222
   0.00000000  0.33333333  0.00000000       0.222
   0.33333333  0.33333333  0.00000000       0.222
  -0.33333333  0.33333333  0.00000000       0.222
 
 position of ions in fractional coordinates (direct lattice) 
   0.00000000  0.00000000  0.00000000
   0.33333333  0.00000000  0.09162022
   0.16884617  0.99973903  0.18341343
   0.25000000  0.12500000  0.00000000
   0.08333333  0.12500000  0.09162022
   0.41901326  0.12683396  0.18655816
   0.00077356  0.99896286  0.27716244
   0.24798197  0.12346672  0.27673993
   0.00000000  0.25000000  0.00000000
   0.33333333  0.25000000  0.09162022
   0.16728117  0.24894095  0.18284928
   0.25000000  0.37500000  0.00000000
   0.08333333  0.37500000  0.09162022
   0.41713184  0.37499866  0.18342071
   0.99992158  0.24777383  0.27680061
   0.24321128  0.37497802  0.27368961
   0.00000000  0.50000000  0.00000000
   0.33333333  0.50000000  0.09162022
   0.16727446  0.50105253  0.18285150
   0.25000000  0.62500000  0.00000000
   0.08333333  0.62500000  0.09162022
   0.41900543  0.62315089  0.18656452
   0.99991367  0.50218813  0.27680798
   0.24798130  0.62648836  0.27674737
   0.00000000  0.75000000  0.00000000
   0.33333333  0.75000000  0.09162022
   0.16884752  0.75024373  0.18342071
   0.25000000  0.87500000  0.00000000
   0.08333333  0.87500000  0.09162022
   0.41800257  0.87498898  0.18348865
   0.00076795  0.75099716  0.27716791
   0.25002660  0.87497593  0.27718087
   0.50000000  0.00000000  0.00000000
   0.83333333  0.00000000  0.09162022
   0.66737017  0.99959337  0.18375869
   0.75000000  0.12500000  0.00000000
   0.58333333  0.12500000  0.09162022
   0.91785480  0.12434098  0.18337441
   0.50047350  0.99772932  0.27775518
   0.75245577  0.12292398  0.27628230
   0.50000000  0.25000000  0.00000000
   0.83333333  0.25000000  0.09162022
   0.66627650  0.24962608  0.18461420
   0.75000000  0.37500000  0.00000000
   0.58333333  0.37500000  0.09162022
   0.91848630  0.37499607  0.18250968
   0.50071699  0.24961900  0.28048348
   0.75779803  0.37498387  0.27440200
   0.50000000  0.50000000  0.00000000
   0.83333333  0.50000000  0.09162022
   0.66627424  0.50035909  0.18461656
   0.75000000  0.62500000  0.00000000
   0.58333333  0.62500000  0.09162022
   0.91785557  0.62564534  0.18337487
   0.50073553  0.50031978  0.28048898
   0.75246451  0.62705419  0.27628738
   0.50000000  0.75000000  0.00000000
   0.83333333  0.75000000  0.09162022
   0.66737249  0.75038683  0.18375884
   0.75000000  0.87500000  0.00000000
   0.58333333  0.87500000  0.09162022
   0.91836841  0.87499310  0.18356060
   0.50047777  0.75221979  0.27776258
   0.75157370  0.87498398  0.27689708
   0.50017672  0.31390122  0.35573688
   0.50014959  0.43602474  0.35574028
 
 position of ions in cartesian coordinates  (Angst):
   0.00000000  0.00000000  0.00000000
   3.17447874  0.00000000  2.29050552
   1.60799577 11.21821133  4.58533586
   2.38085904  1.40264246  0.00000000
   0.79361970  1.40264246  2.29050552
   3.99044606  1.42322158  4.66395410
   0.00736696 11.20950182  6.92906106
   2.36164050  1.38543737  6.91849831
   0.00000000  2.80528492  0.00000000
   3.17447874  2.80528492  2.29050552
   1.59309158  2.79340120  4.57123208
   2.38085904  4.20792738  0.00000000
   0.79361970  4.20792738  2.29050552
   3.97252846  4.20791233  4.58551776
   9.52268940  2.78030472  6.92001523
   2.31620709  4.20768078  6.84224035
   0.00000000  5.61056984  0.00000000
   3.17447874  5.61056984  2.29050552
   1.59302763  5.62238039  4.57128759
   2.38085904  7.01321230  0.00000000
   0.79361970  7.01321230  2.29050552
   3.99037145  6.99246322  4.66411303
   9.52261403  5.63512310  6.92019960
   2.36163406  7.02991341  6.91868429
   0.00000000  8.41585476  0.00000000
   3.17447874  8.41585476  2.29050552
   1.60800856  8.41858969  4.58551764
   2.38085904  9.81849722  0.00000000
   0.79361970  9.81849722  2.29050552
   3.98082083  9.81837357  4.58721624
   0.00731357  8.42704399  6.92919770
   2.38111237  9.81822708  6.92952168
   4.76171809  0.00000000  0.00000000
   7.93619683  0.00000000  2.29050552
   6.35565718 11.21657682  4.59396723
   7.14257713  1.40264246  0.00000000
   5.55533779  1.40264246  2.29050552
   8.74113162  1.39524751  4.58436024
   4.76622744 11.19566005  6.94387941
   7.16596452  1.37934711  6.90705757
   4.76171809  2.80528492  0.00000000
   7.93619683  2.80528492  2.29050552
   6.34524177  2.80108913  4.61535510
   7.14257713  4.20792738  0.00000000
   5.55533779  4.20792738  2.29050552
   8.74714570  4.20788326  4.56274208
   4.76854631  2.80100968  7.01208689
   7.21684121  4.20774642  6.86004989
   4.76171809  5.61056984  0.00000000
   7.93619683  5.61056984  2.29050552
   6.34522020  5.61459926  4.61541388
   7.14257713  7.01321230  0.00000000
   5.55533779  7.01321230  2.29050552
   8.74113892  7.02045375  4.58437164
   4.76872286  5.61415812  7.01222458
   7.16604774  7.03626271  6.90718452
   4.76171809  8.41585476  0.00000000
   7.93619683  8.41585476  2.29050552
   6.35567935  8.42019546  4.59397105
   7.14257713  9.81849722  0.00000000
   5.55533779  9.81849722  2.29050552
   8.74602297  9.81841974  4.58901490
   4.76626810  8.44076329  6.94406461
   7.15756417  9.81831748  6.92242704
   4.76340107  3.52232939  8.89342194
   4.76314274  4.89269448  8.89350689
 


--------------------------------------------------------------------------------------------------------


 k-point  1 :   0.0000 0.0000 0.0000  plane waves:   57957
 k-point  2 :   0.3333 0.0000 0.0000  plane waves:   57951
 k-point  3 :   0.0000 0.3333 0.0000  plane waves:   57949
 k-point  4 :   0.3333 0.3333 0.0000  plane waves:   57919
 k-point  5 :  -0.3333 0.3333 0.0000  plane waves:   57919

 maximum and minimum number of plane-waves per node :      7270     7222

 maximum number of plane-waves:     57957
 maximum index in each direction: 
   IXMAX=   16   IYMAX=   19   IZMAX=   43
   IXMIN=  -16   IYMIN=  -19   IZMIN=  -43


 real space projection operators:
  total allocation   :      18277.28 KBytes
  max/ min on nodes  :       2571.59       2144.72


 parallel 3D FFT for wavefunctions:
    minimum data exchange during FFTs selected (reduces bandwidth)
 parallel 3D FFT for charge:
    minimum data exchange during FFTs selected (reduces bandwidth)


 total amount of memory used by VASP MPI-rank0    74806. kBytes
=======================================================================

   base      :      30000. kBytes
   nonlr-proj:       5519. kBytes
   fftplans  :       3937. kBytes
   grid      :       6141. kBytes
   one-center:        139. kBytes
   wavefun   :      29070. kBytes
 
     INWAV:  cpu time    0.0000: real time    0.0001
 Broyden mixing: mesh for mixing (old mesh)
   NGX = 33   NGY = 39   NGZ = 87
  (NGX  =100   NGY  =120   NGZ  =280)
  gives a total of 111969 points

 initial charge density was supplied:
 charge density of overlapping atoms calculated
 number of electron     652.0000000 magnetization 
 keeping initial charge density in first step


--------------------------------------------------------------------------------------------------------


 Maximum index for non-local projection operator          404
 Maximum index for augmentation-charges          546 (set IRDMAX)


--------------------------------------------------------------------------------------------------------


 First call to EWALD:  gamma=   0.128
 Maximum number of real-space cells 4x 3x 2
 Maximum number of reciprocal cells 2x 2x 5

    FEWALD:  cpu time    0.0016: real time    0.0029


--------------------------------------- Iteration      1(   1)  ---------------------------------------


    POTLOK:  cpu time    0.0353: real time    0.1891
    SETDIJ:  cpu time    0.0041: real time    0.0043
     EDDAV:  cpu time    8.6314: real time    8.6733
       DOS:  cpu time    0.0008: real time    0.0008
    --------------------------------------------
      LOOP:  cpu time    8.6717: real time    8.8674

 eigenvalue-minimisations  :  3920
 total energy-change (2. order) : 0.4298914E+04  (-0.2689810E+05)
 number of electron     652.0000000 magnetization 
 augmentation part      652.0000000 magnetization 

 DIPCOR: dipole corrections for dipol
 direction  3 min pos   172,
 dipolmoment           0.000000      0.000000     -0.000276 electrons x Angstroem
 Tr[quadrupol]    -12388.256790

 energy correction for charged system         0.000000 eV
 dipol+quadrupol energy correction           -0.000000 eV
 added-field ion interaction          0.009570 eV  (added to PSCEN)


 Free energy of the ion-electron system (eV)
  ---------------------------------------------------
  alpha Z        PSCENC =      1496.04115988
  Ewald energy   TEWEN  =    245845.17179925
  -Hartree energ DENC   =   -295902.46740006
  -exchange      EXHF   =         0.00000000
  -V(xc)+E(xc)   XCENC  =       274.12714390
  PAW double counting   =     45245.00522118   -43438.47517393
  entropy T*S    EENTRO =        -0.14370738
  eigenvalues    EBANDS =      3251.77762536
  atomic energy  EATOM  =     47527.87699037
  Solvation  Ediel_sol  =         0.00000000
  ---------------------------------------------------
  free energy    TOTEN  =      4298.91365857 eV

  energy without entropy =     4299.05736595  energy(sigma->0) =     4298.98551226


--------------------------------------------------------------------------------------------------------




--------------------------------------- Iteration      1(   2)  ---------------------------------------


     EDDAV:  cpu time    9.7842: real time    9.8336
       DOS:  cpu time    0.0007: real time    0.0007
    --------------------------------------------
      LOOP:  cpu time    9.7849: real time    9.8343

 eigenvalue-minimisations  :  4632
 total energy-change (2. order) :-0.4366638E+04  (-0.4028712E+04)
 number of electron     652.0000000 magnetization 
 augmentation part      652.0000000 magnetization 

 DIPCOR: dipole corrections for dipol
 direction  3 min pos   172,
 dipolmoment           0.000000      0.000000     -0.000276 electrons x Angstroem
 Tr[quadrupol]    -12388.256790

 energy correction for charged system         0.000000 eV
 dipol+quadrupol energy correction           -0.000000 eV
 added-field ion interaction          0.009570 eV  (added to PSCEN)


 Free energy of the ion-electron system (eV)
  ---------------------------------------------------
  alpha Z        PSCENC =      1496.04115988
  Ewald energy   TEWEN  =    245845.17179925
  -Hartree energ DENC   =   -295902.46740006
  -exchange      EXHF   =         0.00000000
  -V(xc)+E(xc)   XCENC  =       274.12714390
  PAW double counting   =     45245.00522118   -43438.47517393
  entropy T*S    EENTRO =        -0.25802439
  eigenvalues    EBANDS =     -1114.74589772
  atomic energy  EATOM  =     47527.87699037
  Solvation  Ediel_sol  =         0.00000000
  ---------------------------------------------------
  free energy    TOTEN  =       -67.72418152 eV

  energy without entropy =      -67.46615713  energy(sigma->0) =      -67.59516933


--------------------------------------------------------------------------------------------------------




--------------------------------------- Iteration      1(   3)  ---------------------------------------


     EDDAV:  cpu time    9.7124: real time    9.7514
       DOS:  cpu time    0.0008: real time    0.0008
    --------------------------------------------
      LOOP:  cpu time    9.7132: real time    9.7521

 eigenvalue-minimisations  :  4592
 total energy-change (2. order) :-0.3251154E+03  (-0.2929322E+03)
 number of electron     652.0000000 magnetization 
 augmentation part      652.0000000 magnetization 

 DIPCOR: dipole corrections for dipol
 direction  3 min pos   172,
 dipolmoment           0.000000      0.000000     -0.000276 electrons x Angstroem
 Tr[quadrupol]    -12388.256790

 energy correction for charged system         0.000000 eV
 dipol+quadrupol energy correction           -0.000000 eV
 added-field ion interaction          0.009570 eV  (added to PSCEN)


 Free energy of the ion-electron system (eV)
  ---------------------------------------------------
  alpha Z        PSCENC =      1496.04115988
  Ewald energy   TEWEN  =    245845.17179925
  -Hartree energ DENC   =   -295902.46740006
  -exchange      EXHF   =         0.00000000
  -V(xc)+E(xc)   XCENC  =       274.12714390
  PAW double counting   =     45245.00522118   -43438.47517393
  entropy T*S    EENTRO =        -0.54001817
  eigenvalues    EBANDS =     -1439.57927039
  atomic energy  EATOM  =     47527.87699037
  Solvation  Ediel_sol  =         0.00000000
  ---------------------------------------------------
  free energy    TOTEN  =      -392.83954796 eV

  energy without entropy =     -392.29952980  energy(sigma->0) =     -392.56953888


--------------------------------------------------------------------------------------------------------




--------------------------------------- Iteration      1(   4)  ---------------------------------------


     EDDAV:  cpu time   10.4980: real time   10.5453
       DOS:  cpu time    0.0008: real time    0.0007
    --------------------------------------------
      LOOP:  cpu time   10.4988: real time   10.5460

 eigenvalue-minimisations  :  5064
 total energy-change (2. order) :-0.1604148E+02  (-0.1507397E+02)
 number of electron     652.0000000 magnetization 
 augmentation part      652.0000000 magnetization 

 DIPCOR: dipole corrections for dipol
 direction  3 min pos   172,
 dipolmoment           0.000000      0.000000     -0.000276 electrons x Angstroem
 Tr[quadrupol]    -12388.256790

 energy correction for charged system         0.000000 eV
 dipol+quadrupol energy correction           -0.000000 eV
 added-field ion interaction          0.009570 eV  (added to PSCEN)


 Free energy of the ion-electron system (eV)
  ---------------------------------------------------
  alpha Z        PSCENC =      1496.04115988
  Ewald energy   TEWEN  =    245845.17179925
  -Hartree energ DENC   =   -295902.46740006
  -exchange      EXHF   =         0.00000000
  -V(xc)+E(xc)   XCENC  =       274.12714390
  PAW double counting   =     45245.00522118   -43438.47517393
  entropy T*S    EENTRO =        -0.57289320
  eigenvalues    EBANDS =     -1455.58787796
  atomic energy  EATOM  =     47527.87699037
  Solvation  Ediel_sol  =         0.00000000
  ---------------------------------------------------
  free energy    TOTEN  =      -408.88103057 eV

  energy without entropy =     -408.30813737  energy(sigma->0) =     -408.59458397


--------------------------------------------------------------------------------------------------------




--------------------------------------- Iteration      1(   5)  ---------------------------------------


     EDDAV:  cpu time   10.9019: real time   10.9472
       DOS:  cpu time    0.0008: real time    0.0008
    CHARGE:  cpu time    0.1475: real time    0.1478
    MIXING:  cpu time    0.0016: real time    0.0020
    --------------------------------------------
      LOOP:  cpu time   11.0519: real time   11.0978

 eigenvalue-minimisations  :  5288
 total energy-change (2. order) :-0.4534309E+00  (-0.4495995E+00)
 number of electron     651.9999653 magnetization 
 augmentation part      187.3056109 magnetization 

 DIPCOR: dipole corrections for dipol
 direction  3 min pos   172,
 dipolmoment           0.000000      0.000000     -0.000276 electrons x Angstroem
 Tr[quadrupol]    -12388.256790

 energy correction for charged system         0.000000 eV
 dipol+quadrupol energy correction           -0.000000 eV
 added-field ion interaction          0.009570 eV  (added to PSCEN)


 Broyden mixing:
  rms(total) = 0.85621E+01    rms(broyden)= 0.85616E+01
  rms(prec ) = 0.86638E+01
  weight for this iteration     100.00

 Free energy of the ion-electron system (eV)
  ---------------------------------------------------
  alpha Z        PSCENC =      1496.04115988
  Ewald energy   TEWEN  =    245845.17179925
  -Hartree energ DENC   =   -295902.46740006
  -exchange      EXHF   =         0.00000000
  -V(xc)+E(xc)   XCENC  =       274.12714390
  PAW double counting   =     45245.00522118   -43438.47517393
  entropy T*S    EENTRO =        -0.57392262
  eigenvalues    EBANDS =     -1456.04027941
  atomic energy  EATOM  =     47527.87699037
  Solvation  Ediel_sol  =         0.00000000
  ---------------------------------------------------
  free energy    TOTEN  =      -409.33446144 eV

  energy without entropy =     -408.76053882  energy(sigma->0) =     -409.04750013


--------------------------------------------------------------------------------------------------------




--------------------------------------- Iteration      1(   6)  ---------------------------------------


    POTLOK:  cpu time    0.0298: real time    0.0304
    SETDIJ:  cpu time    0.0036: real time    0.0036
    EDDIAG:  cpu time    1.2302: real time    1.2428
  RMM-DIIS:  cpu time    3.5143: real time    3.5304
    ORTHCH:  cpu time    0.5630: real time    0.5632
       DOS:  cpu time    0.0009: real time    0.0009
    CHARGE:  cpu time    0.1438: real time    0.1440
    MIXING:  cpu time    0.0014: real time    0.0014
    --------------------------------------------
      LOOP:  cpu time    5.4871: real time    5.5169

 eigenvalue-minimisations  :  3937
 total energy-change (2. order) : 0.1156256E+02  (-0.7417585E+01)
 number of electron     651.9999681 magnetization 
 augmentation part      198.2670737 magnetization 

 DIPCOR: dipole corrections for dipol
 direction  3 min pos   188,
 dipolmoment           0.000000      0.000000      0.458554 electrons x Angstroem
 Tr[quadrupol]    -12377.664367

 energy correction for charged system         0.000000 eV
 dipol+quadrupol energy correction           -0.007122 eV
 added-field ion interaction         13.019686 eV  (added to PSCEN)


 Broyden mixing:
  rms(total) = 0.64768E+01    rms(broyden)= 0.64761E+01
  rms(prec ) = 0.70236E+01
  weight for this iteration     100.00

 eigenvalues of (default mixing * dielectric matrix)
  average eigenvalue GAMMA=   1.1046
  1.1046

 Free energy of the ion-electron system (eV)
  ---------------------------------------------------
  alpha Z        PSCENC =      1509.04415470
  Ewald energy   TEWEN  =    245845.17179925
  -Hartree energ DENC   =   -295116.24355222
  -exchange      EXHF   =         0.00000000
  -V(xc)+E(xc)   XCENC  =       259.01772852
  PAW double counting   =     50023.21717947   -48312.43410336
  entropy T*S    EENTRO =        -0.52297772
  eigenvalues    EBANDS =     -2132.89911589
  atomic energy  EATOM  =     47527.87699037
  Solvation  Ediel_sol  =         0.00000000
  ---------------------------------------------------
  free energy    TOTEN  =      -397.77189687 eV

  energy without entropy =     -397.24891915  energy(sigma->0) =     -397.51040801


--------------------------------------------------------------------------------------------------------




--------------------------------------- Iteration      1(   7)  ---------------------------------------


    POTLOK:  cpu time    0.0328: real time    0.0351
    SETDIJ:  cpu time    0.0039: real time    0.0039
    EDDIAG:  cpu time    1.2233: real time    1.2372
  RMM-DIIS:  cpu time    3.8987: real time    3.9148
    ORTHCH:  cpu time    0.5607: real time    0.5609
       DOS:  cpu time    0.0008: real time    0.0008
    CHARGE:  cpu time    0.1465: real time    0.1467
    MIXING:  cpu time    0.0009: real time    0.0009
    --------------------------------------------
      LOOP:  cpu time    5.8675: real time    5.9003

 eigenvalue-minimisations  :  4301
 total energy-change (2. order) :-0.2136532E+03  (-0.3422444E+02)
 number of electron     651.9999645 magnetization 
 augmentation part      191.7831099 magnetization 

 DIPCOR: dipole corrections for dipol
 direction  3 min pos   187,
 dipolmoment           0.000000      0.000000     -4.945032 electrons x Angstroem
 Tr[quadrupol]    -12393.259004

 energy correction for charged system         0.000000 eV
 dipol+quadrupol energy correction           -0.828189 eV
 added-field ion interaction       -120.904690 eV  (added to PSCEN)


 Broyden mixing:
  rms(total) = 0.10272E+02    rms(broyden)= 0.10272E+02
  rms(prec ) = 0.13963E+02
  weight for this iteration     100.00

 eigenvalues of (default mixing * dielectric matrix)
  average eigenvalue GAMMA=   0.8892
  1.5891  0.1894

 Free energy of the ion-electron system (eV)
  ---------------------------------------------------
  alpha Z        PSCENC =      1374.29871133
  Ewald energy   TEWEN  =    245845.17179925
  -Hartree energ DENC   =   -295655.89570736
  -exchange      EXHF   =         0.00000000
  -V(xc)+E(xc)   XCENC  =       253.16004650
  PAW double counting   =     52825.86565692   -51144.48683274
  entropy T*S    EENTRO =        -0.48210486
  eigenvalues    EBANDS =     -1636.93361535
  atomic energy  EATOM  =     47527.87699037
  Solvation  Ediel_sol  =         0.00000000
  ---------------------------------------------------
  free energy    TOTEN  =      -611.42505593 eV

  energy without entropy =     -610.94295107  energy(sigma->0) =     -611.18400350


--------------------------------------------------------------------------------------------------------




--------------------------------------- Iteration      1(   8)  ---------------------------------------


    POTLOK:  cpu time    0.0270: real time    0.0378
    SETDIJ:  cpu time    0.0039: real time    0.0039
    EDDIAG:  cpu time    1.2343: real time    1.2483
  RMM-DIIS:  cpu time    3.4726: real time    3.4880
    ORTHCH:  cpu time    0.5634: real time    0.5637
       DOS:  cpu time    0.0009: real time    0.0008
    CHARGE:  cpu time    0.1463: real time    0.1466
    MIXING:  cpu time    0.0011: real time    0.0011
    --------------------------------------------
      LOOP:  cpu time    5.4495: real time    5.4902

 eigenvalue-minimisations  :  3924
 total energy-change (2. order) : 0.9092676E+02  (-0.1386557E+02)
 number of electron     651.9999579 magnetization 
 augmentation part      195.2377299 magnetization 

 DIPCOR: dipole corrections for dipol
 direction  3 min pos   183,
 dipolmoment           0.000000      0.000000      1.894089 electrons x Angstroem
 Tr[quadrupol]    -12402.933363

 energy correction for charged system         0.000000 eV
 dipol+quadrupol energy correction           -0.121504 eV
 added-field ion interaction         16.434925 eV  (added to PSCEN)


 Broyden mixing:
  rms(total) = 0.88880E+01    rms(broyden)= 0.88879E+01
  rms(prec ) = 0.11038E+02
  weight for this iteration     100.00

 eigenvalues of (default mixing * dielectric matrix)
  average eigenvalue GAMMA=   0.8557
  2.1523  0.2074  0.2074

 Free energy of the ion-electron system (eV)
  ---------------------------------------------------
  alpha Z        PSCENC =      1512.34501066
  Ewald energy   TEWEN  =    245845.17179925
  -Hartree energ DENC   =   -295683.31026833
  -exchange      EXHF   =         0.00000000
  -V(xc)+E(xc)   XCENC  =       249.80650784
  PAW double counting   =     54754.63321913   -53099.92959497
  entropy T*S    EENTRO =        -0.21019825
  eigenvalues    EBANDS =     -1626.88176378
  atomic energy  EATOM  =     47527.87699037
  Solvation  Ediel_sol  =         0.00000000
  ---------------------------------------------------
  free energy    TOTEN  =      -520.49829808 eV

  energy without entropy =     -520.28809983  energy(sigma->0) =     -520.39319895


--------------------------------------------------------------------------------------------------------




--------------------------------------- Iteration      1(   9)  ---------------------------------------


    POTLOK:  cpu time    0.0284: real time    0.0318
    SETDIJ:  cpu time    0.0036: real time    0.0036
    EDDIAG:  cpu time    1.2760: real time    1.2785
  RMM-DIIS:  cpu time    3.5085: real time    3.5359
    ORTHCH:  cpu time    0.5600: real time    0.5602
       DOS:  cpu time    0.0009: real time    0.0009
    CHARGE:  cpu time    0.1457: real time    0.1459
    MIXING:  cpu time    0.0011: real time    0.0011
    --------------------------------------------
      LOOP:  cpu time    5.5241: real time    5.5578

 eigenvalue-minimisations  :  3932
 total energy-change (2. order) : 0.9783873E+02  (-0.8079447E+01)
 number of electron     651.9999603 magnetization 
 augmentation part      200.0184431 magnetization 

 DIPCOR: dipole corrections for dipol
 direction  3 min pos   185,
 dipolmoment           0.000000      0.000000     -0.870848 electrons x Angstroem
 Tr[quadrupol]    -12388.043001

 energy correction for charged system         0.000000 eV
 dipol+quadrupol energy correction           -0.025685 eV
 added-field ion interaction        -14.424146 eV  (added to PSCEN)


 Broyden mixing:
  rms(total) = 0.48683E+01    rms(broyden)= 0.48682E+01
  rms(prec ) = 0.65137E+01
  weight for this iteration     100.00

 eigenvalues of (default mixing * dielectric matrix)
  average eigenvalue GAMMA=   0.7817
  2.0798  0.4547  0.4547  0.1374

 Free energy of the ion-electron system (eV)
  ---------------------------------------------------
  alpha Z        PSCENC =      1481.58175916
  Ewald energy   TEWEN  =    245845.17179925
  -Hartree energ DENC   =   -295193.29876447
  -exchange      EXHF   =         0.00000000
  -V(xc)+E(xc)   XCENC  =       246.97776307
  PAW double counting   =     57463.58486879   -55845.17543402
  entropy T*S    EENTRO =        -0.32502967
  eigenvalues    EBANDS =     -1949.05352059
  atomic energy  EATOM  =     47527.87699037
  Solvation  Ediel_sol  =         0.00000000
  ---------------------------------------------------
  free energy    TOTEN  =      -422.65956811 eV

  energy without entropy =     -422.33453844  energy(sigma->0) =     -422.49705328


--------------------------------------------------------------------------------------------------------




--------------------------------------- Iteration      1(  10)  ---------------------------------------


    POTLOK:  cpu time    0.0305: real time    0.0439
    SETDIJ:  cpu time    0.0036: real time    0.0036
    EDDIAG:  cpu time    1.2348: real time    1.2361
  RMM-DIIS:  cpu time    3.5376: real time    3.5524
    ORTHCH:  cpu time    0.5514: real time    0.5644
       DOS:  cpu time    0.0009: real time    0.0008
    CHARGE:  cpu time    0.1449: real time    0.1452
    MIXING:  cpu time    0.0010: real time    0.0010
    --------------------------------------------
      LOOP:  cpu time    5.5047: real time    5.5474

 eigenvalue-minimisations  :  3935
 total energy-change (2. order) : 0.1111077E+02  (-0.6375899E+01)
 number of electron     651.9999653 magnetization 
 augmentation part      200.6307421 magnetization 

 DIPCOR: dipole corrections for dipol
 direction  3 min pos   179,
 dipolmoment           0.000000      0.000000     -1.098161 electrons x Angstroem
 Tr[quadrupol]    -12382.082450

 energy correction for charged system         0.000000 eV
 dipol+quadrupol energy correction           -0.040844 eV
 added-field ion interaction          7.792352 eV  (added to PSCEN)


 Broyden mixing:
  rms(total) = 0.47025E+01    rms(broyden)= 0.47023E+01
  rms(prec ) = 0.68175E+01
  weight for this iteration     100.00

 eigenvalues of (default mixing * dielectric matrix)
  average eigenvalue GAMMA=   0.7171
  2.1452  0.7331  0.1430  0.2933  0.2708

 Free energy of the ion-electron system (eV)
  ---------------------------------------------------
  alpha Z        PSCENC =      1503.78309836
  Ewald energy   TEWEN  =    245845.17179925
  -Hartree energ DENC   =   -295037.84174876
  -exchange      EXHF   =         0.00000000
  -V(xc)+E(xc)   XCENC  =       250.09723101
  PAW double counting   =     57593.48552651   -55970.00706727
  entropy T*S    EENTRO =        -0.41820198
  eigenvalues    EBANDS =     -2123.69642858
  atomic energy  EATOM  =     47527.87699037
  Solvation  Ediel_sol  =         0.00000000
  ---------------------------------------------------
  free energy    TOTEN  =      -411.54880109 eV

  energy without entropy =     -411.13059911  energy(sigma->0) =     -411.33970010


--------------------------------------------------------------------------------------------------------




--------------------------------------- Iteration      1(  11)  ---------------------------------------


    POTLOK:  cpu time    0.0286: real time    0.0287
    SETDIJ:  cpu time    0.0036: real time    0.0036
    EDDIAG:  cpu time    1.2347: real time    1.2361
  RMM-DIIS:  cpu time    3.5336: real time    3.5489
    ORTHCH:  cpu time    0.5613: real time    0.5616
       DOS:  cpu time    0.0009: real time    0.0009
    CHARGE:  cpu time    0.1455: real time    0.1457
    MIXING:  cpu time    0.0012: real time    0.0012
    --------------------------------------------
      LOOP:  cpu time    5.5094: real time    5.5267

 eigenvalue-minimisations  :  3933
 total energy-change (2. order) : 0.9224824E+01  (-0.2178480E+01)
 number of electron     651.9999631 magnetization 
 augmentation part      200.3342155 magnetization 

 DIPCOR: dipole corrections for dipol
 direction  3 min pos   184,
 dipolmoment           0.000000      0.000000      0.888854 electrons x Angstroem
 Tr[quadrupol]    -12383.576905

 energy correction for charged system         0.000000 eV
 dipol+quadrupol energy correction           -0.026758 eV
 added-field ion interaction         11.217463 eV  (added to PSCEN)


 Broyden mixing:
  rms(total) = 0.42852E+01    rms(broyden)= 0.42846E+01
  rms(prec ) = 0.63255E+01
  weight for this iteration     100.00

 eigenvalues of (default mixing * dielectric matrix)
  average eigenvalue GAMMA=   0.7035
  2.3498  0.8143  0.3712  0.3712  0.1573  0.1573

 Free energy of the ion-electron system (eV)
  ---------------------------------------------------
  alpha Z        PSCENC =      1507.22229513
  Ewald energy   TEWEN  =    245845.17179925
  -Hartree energ DENC   =   -295105.66981499
  -exchange      EXHF   =         0.00000000
  -V(xc)+E(xc)   XCENC  =       251.46192589
  PAW double counting   =     57861.02786525   -56236.94799948
  entropy T*S    EENTRO =        -0.34675558
  eigenvalues    EBANDS =     -2052.12028339
  atomic energy  EATOM  =     47527.87699037
  Solvation  Ediel_sol  =         0.00000000
  ---------------------------------------------------
  free energy    TOTEN  =      -402.32397754 eV

  energy without entropy =     -401.97722197  energy(sigma->0) =     -402.15059976


--------------------------------------------------------------------------------------------------------




--------------------------------------- Iteration      1(  12)  ---------------------------------------


    POTLOK:  cpu time    0.0284: real time    0.0285
    SETDIJ:  cpu time    0.0036: real time    0.0036
    EDDIAG:  cpu time    1.2331: real time    1.2441
  RMM-DIIS:  cpu time    3.5257: real time    3.5448
    ORTHCH:  cpu time    0.5616: real time    0.5619
       DOS:  cpu time    0.0009: real time    0.0009
    CHARGE:  cpu time    0.1459: real time    0.1461
    MIXING:  cpu time    0.0012: real time    0.0012
    --------------------------------------------
      LOOP:  cpu time    5.5004: real time    5.5312

 eigenvalue-minimisations  :  3933
 total energy-change (2. order) : 0.1712834E+02  (-0.6866928E+00)
 number of electron     651.9999650 magnetization 
 augmentation part      200.2658601 magnetization 

 DIPCOR: dipole corrections for dipol
 direction  3 min pos   188,
 dipolmoment           0.000000      0.000000      0.224565 electrons x Angstroem
 Tr[quadrupol]    -12385.527531

 energy correction for charged system         0.000000 eV
 dipol+quadrupol energy correction           -0.001708 eV
 added-field ion interaction          6.376054 eV  (added to PSCEN)


 Broyden mixing:
  rms(total) = 0.17807E+01    rms(broyden)= 0.17804E+01
  rms(prec ) = 0.21012E+01
  weight for this iteration     100.00

 eigenvalues of (default mixing * dielectric matrix)
  average eigenvalue GAMMA=   0.6427
  2.0917  0.9311  0.4409  0.3607  0.3607  0.1569  0.1569

 Free energy of the ion-electron system (eV)
  ---------------------------------------------------
  alpha Z        PSCENC =      1502.40593638
  Ewald energy   TEWEN  =    245845.17179925
  -Hartree energ DENC   =   -295167.79997877
  -exchange      EXHF   =         0.00000000
  -V(xc)+E(xc)   XCENC  =       250.86188345
  PAW double counting   =     58326.92913431   -56709.22897581
  entropy T*S    EENTRO =        -0.55910471
  eigenvalues    EBANDS =     -1960.85331706
  atomic energy  EATOM  =     47527.87699037
  Solvation  Ediel_sol  =         0.00000000
  ---------------------------------------------------
  free energy    TOTEN  =      -385.19563257 eV

  energy without entropy =     -384.63652786  energy(sigma->0) =     -384.91608022


--------------------------------------------------------------------------------------------------------




--------------------------------------- Iteration      1(  13)  ---------------------------------------


    POTLOK:  cpu time    0.0286: real time    0.0287
    SETDIJ:  cpu time    0.0036: real time    0.0036
    EDDIAG:  cpu time    1.2339: real time    1.2452
  RMM-DIIS:  cpu time    3.5536: real time    3.5684
    ORTHCH:  cpu time    0.5598: real time    0.5600
       DOS:  cpu time    0.0009: real time    0.0009
    CHARGE:  cpu time    0.1463: real time    0.1466
    MIXING:  cpu time    0.0012: real time    0.0012
    --------------------------------------------
      LOOP:  cpu time    5.5279: real time    5.5547

 eigenvalue-minimisations  :  3936
 total energy-change (2. order) : 0.1879512E+01  (-0.1851372E+00)
 number of electron     651.9999636 magnetization 
 augmentation part      199.7851231 magnetization 

 DIPCOR: dipole corrections for dipol
 direction  3 min pos   188,
 dipolmoment           0.000000      0.000000      0.163078 electrons x Angstroem
 Tr[quadrupol]    -12385.314576

 energy correction for charged system         0.000000 eV
 dipol+quadrupol energy correction           -0.000901 eV
 added-field ion interaction          4.630264 eV  (added to PSCEN)


 Broyden mixing:
  rms(total) = 0.12312E+01    rms(broyden)= 0.12298E+01
  rms(prec ) = 0.13961E+01
  weight for this iteration     100.00

 eigenvalues of (default mixing * dielectric matrix)
  average eigenvalue GAMMA=   0.5918
  2.0574  0.6851  0.6851  0.3631  0.3631  0.2627  0.1587  0.1587

 Free energy of the ion-electron system (eV)
  ---------------------------------------------------
  alpha Z        PSCENC =      1500.66095348
  Ewald energy   TEWEN  =    245845.17179925
  -Hartree energ DENC   =   -295172.06703810
  -exchange      EXHF   =         0.00000000
  -V(xc)+E(xc)   XCENC  =       251.15171992
  PAW double counting   =     57966.96270346   -56344.10218338
  entropy T*S    EENTRO =        -0.60095162
  eigenvalues    EBANDS =     -1958.37011395
  atomic energy  EATOM  =     47527.87699037
  Solvation  Ediel_sol  =         0.00000000
  ---------------------------------------------------
  free energy    TOTEN  =      -383.31612057 eV

  energy without entropy =     -382.71516895  energy(sigma->0) =     -383.01564476


--------------------------------------------------------------------------------------------------------




--------------------------------------- Iteration      1(  14)  ---------------------------------------


    POTLOK:  cpu time    0.0288: real time    0.0290
    SETDIJ:  cpu time    0.0036: real time    0.0036
    EDDIAG:  cpu time    1.2334: real time    1.2433
  RMM-DIIS:  cpu time    3.5657: real time    3.5800
    ORTHCH:  cpu time    0.5622: real time    0.5626
       DOS:  cpu time    0.0009: real time    0.0009
    CHARGE:  cpu time    0.1458: real time    0.1460
    MIXING:  cpu time    0.0013: real time    0.0013
    --------------------------------------------
      LOOP:  cpu time    5.5416: real time    5.5667

 eigenvalue-minimisations  :  3963
 total energy-change (2. order) : 0.6293593E+00  (-0.4369621E-01)
 number of electron     651.9999641 magnetization 
 augmentation part      199.9046815 magnetization 

 DIPCOR: dipole corrections for dipol
 direction  3 min pos   191,
 dipolmoment           0.000000      0.000000      0.068336 electrons x Angstroem
 Tr[quadrupol]    -12384.695669

 energy correction for charged system         0.000000 eV
 dipol+quadrupol energy correction           -0.000158 eV
 added-field ion interaction          2.748656 eV  (added to PSCEN)


 Broyden mixing:
  rms(total) = 0.77372E+00    rms(broyden)= 0.77371E+00
  rms(prec ) = 0.87861E+00
  weight for this iteration     100.00

 eigenvalues of (default mixing * dielectric matrix)
  average eigenvalue GAMMA=   0.5891
  2.0801  0.7536  0.7536  0.4592  0.3498  0.3498  0.2428  0.1565  0.1565

 Free energy of the ion-electron system (eV)
  ---------------------------------------------------
  alpha Z        PSCENC =      1498.78008801
  Ewald energy   TEWEN  =    245845.17179925
  -Hartree energ DENC   =   -295159.87024012
  -exchange      EXHF   =         0.00000000
  -V(xc)+E(xc)   XCENC  =       251.29244830
  PAW double counting   =     57858.96864668   -56235.22268953
  entropy T*S    EENTRO =        -0.63225250
  eigenvalues    EBANDS =     -1969.05155171
  atomic energy  EATOM  =     47527.87699037
  Solvation  Ediel_sol  =         0.00000000
  ---------------------------------------------------
  free energy    TOTEN  =      -382.68676125 eV

  energy without entropy =     -382.05450874  energy(sigma->0) =     -382.37063500


--------------------------------------------------------------------------------------------------------




--------------------------------------- Iteration      1(  15)  ---------------------------------------


    POTLOK:  cpu time    0.0287: real time    0.0289
    SETDIJ:  cpu time    0.0036: real time    0.0036
    EDDIAG:  cpu time    1.2363: real time    1.2375
  RMM-DIIS:  cpu time    3.4886: real time    3.5142
    ORTHCH:  cpu time    0.5613: real time    0.5615
       DOS:  cpu time    0.0009: real time    0.0009
    CHARGE:  cpu time    0.1453: real time    0.1456
    MIXING:  cpu time    0.0014: real time    0.0014
    --------------------------------------------
      LOOP:  cpu time    5.4662: real time    5.4937

 eigenvalue-minimisations  :  3937
 total energy-change (2. order) :-0.7280298E-01  (-0.2871010E-01)
 number of electron     651.9999644 magnetization 
 augmentation part      199.9720057 magnetization 

 DIPCOR: dipole corrections for dipol
 direction  3 min pos   193,
 dipolmoment           0.000000      0.000000      0.051840 electrons x Angstroem
 Tr[quadrupol]    -12384.658999

 energy correction for charged system         0.000000 eV
 dipol+quadrupol energy correction           -0.000091 eV
 added-field ion interaction          2.493956 eV  (added to PSCEN)


 Broyden mixing:
  rms(total) = 0.79282E+00    rms(broyden)= 0.79264E+00
  rms(prec ) = 0.10119E+01
  weight for this iteration     100.00

 eigenvalues of (default mixing * dielectric matrix)
  average eigenvalue GAMMA=   0.6200
  2.0996  0.9427  0.9427  0.6699  0.3887  0.3887  0.2723  0.1580  0.1580  0.1789

 Free energy of the ion-electron system (eV)
  ---------------------------------------------------
  alpha Z        PSCENC =      1498.52545562
  Ewald energy   TEWEN  =    245845.17179925
  -Hartree energ DENC   =   -295162.32023715
  -exchange      EXHF   =         0.00000000
  -V(xc)+E(xc)   XCENC  =       251.37793396
  PAW double counting   =     57844.88584501   -56221.11044997
  entropy T*S    EENTRO =        -0.63233059
  eigenvalues    EBANDS =     -1966.53457074
  atomic energy  EATOM  =     47527.87699037
  Solvation  Ediel_sol  =         0.00000000
  ---------------------------------------------------
  free energy    TOTEN  =      -382.75956423 eV

  energy without entropy =     -382.12723365  energy(sigma->0) =     -382.44339894


--------------------------------------------------------------------------------------------------------




--------------------------------------- Iteration      1(  16)  ---------------------------------------


    POTLOK:  cpu time    0.0305: real time    0.0412
    SETDIJ:  cpu time    0.0036: real time    0.0036
    EDDIAG:  cpu time    1.2340: real time    1.2350
  RMM-DIIS:  cpu time    3.5042: real time    3.5187
    ORTHCH:  cpu time    0.5586: real time    0.5676
       DOS:  cpu time    0.0009: real time    0.0009
    CHARGE:  cpu time    0.1464: real time    0.1466
    MIXING:  cpu time    0.0015: real time    0.0015
    --------------------------------------------
      LOOP:  cpu time    5.4797: real time    5.5152

 eigenvalue-minimisations  :  3931
 total energy-change (2. order) :-0.3161363E+00  (-0.3656516E-01)
 number of electron     651.9999640 magnetization 
 augmentation part      199.8043835 magnetization 

 DIPCOR: dipole corrections for dipol
 direction  3 min pos   194,
 dipolmoment           0.000000      0.000000     -0.005171 electrons x Angstroem
 Tr[quadrupol]    -12385.002815

 energy correction for charged system         0.000000 eV
 dipol+quadrupol energy correction           -0.000001 eV
 added-field ion interaction         -0.269153 eV  (added to PSCEN)


 Broyden mixing:
  rms(total) = 0.97025E+00    rms(broyden)= 0.97016E+00
  rms(prec ) = 0.13301E+01
  weight for this iteration     100.00

 eigenvalues of (default mixing * dielectric matrix)
  average eigenvalue GAMMA=   0.6138
  2.1016  0.9772  0.9772  0.8818  0.3764  0.3764  0.3334  0.2594  0.1572  0.1572
  0.1542

 Free energy of the ion-electron system (eV)
  ---------------------------------------------------
  alpha Z        PSCENC =      1495.76243605
  Ewald energy   TEWEN  =    245845.17179925
  -Hartree energ DENC   =   -295177.37318517
  -exchange      EXHF   =         0.00000000
  -V(xc)+E(xc)   XCENC  =       251.49529215
  PAW double counting   =     57845.74059036   -56221.51956086
  entropy T*S    EENTRO =        -0.64016591
  eigenvalues    EBANDS =     -1949.58989682
  atomic energy  EATOM  =     47527.87699037
  Solvation  Ediel_sol  =         0.00000000
  ---------------------------------------------------
  free energy    TOTEN  =      -383.07570058 eV

  energy without entropy =     -382.43553467  energy(sigma->0) =     -382.75561762


--------------------------------------------------------------------------------------------------------




--------------------------------------- Iteration      1(  17)  ---------------------------------------


    POTLOK:  cpu time    0.0291: real time    0.0310
    SETDIJ:  cpu time    0.0036: real time    0.0036
    EDDIAG:  cpu time    1.2381: real time    1.2396
  RMM-DIIS:  cpu time    3.4974: real time    3.5120
    ORTHCH:  cpu time    0.5627: real time    0.5631
       DOS:  cpu time    0.0009: real time    0.0009
    CHARGE:  cpu time    0.1457: real time    0.1460
    MIXING:  cpu time    0.0016: real time    0.0016
    --------------------------------------------
      LOOP:  cpu time    5.4790: real time    5.4978

 eigenvalue-minimisations  :  3929
 total energy-change (2. order) : 0.6579913E+00  (-0.1777887E-01)
 number of electron     651.9999645 magnetization 
 augmentation part      199.8565607 magnetization 

 DIPCOR: dipole corrections for dipol
 direction  3 min pos   194,
 dipolmoment           0.000000      0.000000      0.109647 electrons x Angstroem
 Tr[quadrupol]    -12385.325621

 energy correction for charged system         0.000000 eV
 dipol+quadrupol energy correction           -0.000407 eV
 added-field ion interaction          5.707335 eV  (added to PSCEN)


 Broyden mixing:
  rms(total) = 0.57769E+00    rms(broyden)= 0.57717E+00
  rms(prec ) = 0.67169E+00
  weight for this iteration     100.00

 eigenvalues of (default mixing * dielectric matrix)
  average eigenvalue GAMMA=   0.6002
  2.1033  1.0411  1.0411  0.9350  0.3871  0.3871  0.3194  0.3194  0.2003  0.1574
  0.1574  0.1535

 Free energy of the ion-electron system (eV)
  ---------------------------------------------------
  alpha Z        PSCENC =      1501.73851797
  Ewald energy   TEWEN  =    245845.17179925
  -Hartree energ DENC   =   -295182.98201270
  -exchange      EXHF   =         0.00000000
  -V(xc)+E(xc)   XCENC  =       251.70606273
  PAW double counting   =     57857.77815952   -56233.00175001
  entropy T*S    EENTRO =        -0.63699149
  eigenvalues    EBANDS =     -1950.06848496
  atomic energy  EATOM  =     47527.87699037
  Solvation  Ediel_sol  =         0.00000000
  ---------------------------------------------------
  free energy    TOTEN  =      -382.41770930 eV

  energy without entropy =     -381.78071781  energy(sigma->0) =     -382.09921356


--------------------------------------------------------------------------------------------------------




--------------------------------------- Iteration      1(  18)  ---------------------------------------


    POTLOK:  cpu time    0.0301: real time    0.0377
    SETDIJ:  cpu time    0.0036: real time    0.0036
    EDDIAG:  cpu time    1.2589: real time    1.2721
  RMM-DIIS:  cpu time    3.4875: real time    3.5031
    ORTHCH:  cpu time    0.5582: real time    0.5600
       DOS:  cpu time    0.0009: real time    0.0009
    CHARGE:  cpu time    0.1462: real time    0.1465
    MIXING:  cpu time    0.0017: real time    0.0017
    --------------------------------------------
      LOOP:  cpu time    5.4872: real time    5.5255

 eigenvalue-minimisations  :  3932
 total energy-change (2. order) : 0.1280488E+00  (-0.7240115E-02)
 number of electron     651.9999644 magnetization 
 augmentation part      199.8091063 magnetization 

 DIPCOR: dipole corrections for dipol
 direction  3 min pos   191,
 dipolmoment           0.000000      0.000000      0.133536 electrons x Angstroem
 Tr[quadrupol]    -12385.360969

 energy correction for charged system         0.000000 eV
 dipol+quadrupol energy correction           -0.000604 eV
 added-field ion interaction          5.371154 eV  (added to PSCEN)


 Broyden mixing:
  rms(total) = 0.46690E+00    rms(broyden)= 0.46689E+00
  rms(prec ) = 0.53073E+00
  weight for this iteration     100.00

 eigenvalues of (default mixing * dielectric matrix)
  average eigenvalue GAMMA=   0.6289
  2.1617  1.2704  1.2704  0.6994  0.5772  0.5772  0.3544  0.3544  0.2549  0.1569
  0.1569  0.1921  0.1500

 Free energy of the ion-electron system (eV)
  ---------------------------------------------------
  alpha Z        PSCENC =      1501.40213987
  Ewald energy   TEWEN  =    245845.17179925
  -Hartree energ DENC   =   -295185.04787392
  -exchange      EXHF   =         0.00000000
  -V(xc)+E(xc)   XCENC  =       251.75255474
  PAW double counting   =     57858.98755504   -56233.91123639
  entropy T*S    EENTRO =        -0.63739530
  eigenvalues    EBANDS =     -1947.88419421
  atomic energy  EATOM  =     47527.87699037
  Solvation  Ediel_sol  =         0.00000000
  ---------------------------------------------------
  free energy    TOTEN  =      -382.28966055 eV

  energy without entropy =     -381.65226524  energy(sigma->0) =     -381.97096289


--------------------------------------------------------------------------------------------------------




--------------------------------------- Iteration      1(  19)  ---------------------------------------


    POTLOK:  cpu time    0.0307: real time    0.0381
    SETDIJ:  cpu time    0.0036: real time    0.0037
    EDDIAG:  cpu time    1.2323: real time    1.2449
  RMM-DIIS:  cpu time    3.4961: real time    3.5114
    ORTHCH:  cpu time    0.5628: real time    0.5632
       DOS:  cpu time    0.0009: real time    0.0009
    CHARGE:  cpu time    0.1461: real time    0.1464
    MIXING:  cpu time    0.0018: real time    0.0018
    --------------------------------------------
      LOOP:  cpu time    5.4744: real time    5.5103

 eigenvalue-minimisations  :  3934
 total energy-change (2. order) : 0.3188262E-01  (-0.5502913E-02)
 number of electron     651.9999642 magnetization 
 augmentation part      199.7951366 magnetization 

 DIPCOR: dipole corrections for dipol
 direction  3 min pos   189,
 dipolmoment           0.000000      0.000000      0.162616 electrons x Angstroem
 Tr[quadrupol]    -12385.514386

 energy correction for charged system         0.000000 eV
 dipol+quadrupol energy correction           -0.000896 eV
 added-field ion interaction          5.258375 eV  (added to PSCEN)


 Broyden mixing:
  rms(total) = 0.42210E+00    rms(broyden)= 0.42208E+00
  rms(prec ) = 0.49955E+00
  weight for this iteration     100.00

[...]
    FORHAR:  cpu time    0.0139: real time    0.0139
    MIXING:  cpu time    0.0014: real time    0.0014
    OFIELD:  cpu time    0.0000: real time    0.0000

 ---------------------------------------------------------------------------------------------

         DFTD3 V3.0 Rev 1        
 Edisp (eV)  -35.68409

 E6    (eV) :   -13.4145
 E8    (eV) :   -22.2696
 % E8        : 62.41
    FORVDW:  cpu time    0.1887: real time    0.2100

  FORCE on cell =-STRESS in cart. coord.  units (eV):
  Direction    XX          YY          ZZ          XY          YZ          ZX
  --------------------------------------------------------------------------------------
  Alpha Z  1496.03159  1496.03159  1496.03159
  Ewald  286399.40726286528.53964************     0.11318     0.09399   -79.47928
  Hartree296871.89523296995.67165************     0.03771     0.01124   -25.27765
  E(xc)   -2896.53381 -2896.15150 -2914.32032     0.00074     0.00057    -0.44708
  Local  ************************603725.45117    -0.13044    -0.07708    90.72937
  n-local   315.41896   278.10725   245.97153     0.00597     0.00817    -5.01441
  augment  3335.30398  3353.31771  3445.73104    -0.01051    -0.01227     6.27676
  Kinetic  9492.76929  9475.85059  9752.59726    -0.01633    -0.02098    12.34362
  Fock        0.00000     0.00000     0.00000     0.00000     0.00000     0.00000
  vdW       -46.50794   -45.60058   -29.93468    -0.00104     0.00029     0.59836
  -------------------------------------------------------------------------------------
  Total     -57.16433   -81.17207     1.05420    -0.00072     0.00394    -0.27030
  in kB     -34.28191   -48.67955     0.63221    -0.00043     0.00236    -0.16210
  external pressure =      -27.44 kB  Pullay stress =        0.00 kB


 VOLUME and BASIS-vectors are now :
 -----------------------------------------------------------------------------
  energy-cutoff  :      450.00
  volume of cell :     2671.60
      direct lattice vectors                 reciprocal lattice vectors
     9.523436180  0.000000000  0.000000000     0.105004116  0.000000000  0.000000000
     0.000000000 11.221139680  0.000000000     0.000000000  0.089117508  0.000000000
     0.000000000  0.000000000 25.000000000     0.000000000  0.000000000  0.040000000

  length of vectors
     9.523436180 11.221139680 25.000000000     0.105004116  0.089117508  0.040000000


 FORCES acting on ions
    electron-ion (+dipol)            ewald-force                    non-local-force                 convergence-correction
 -----------------------------------------------------------------------------------------------
   -.697E+00 0.737E+00 0.260E+04   0.671E+00 -.732E+00 -.260E+04   0.500E-01 0.254E-03 -.115E+01   -.443E-02 -.624E-03 -.296E-02
   -.428E+01 -.203E+01 0.909E+03   0.432E+01 0.208E+01 -.909E+03   0.417E-01 0.461E-01 -.449E+00   0.585E-02 -.159E-02 -.169E-01
   0.127E+01 0.789E+01 -.806E+03   -.114E+01 -.794E+01 0.805E+03   -.139E+00 0.506E-01 0.613E+00   0.273E-03 -.619E-03 -.211E-01
   -.149E+01 0.119E+01 0.260E+04   0.148E+01 -.125E+01 -.260E+04   0.151E-01 0.877E-02 -.117E+01   0.179E-02 0.182E-02 -.337E-02
   -.116E+01 0.512E+01 0.918E+03   0.116E+01 -.507E+01 -.918E+03   -.251E-01 -.379E-01 -.598E+00   -.227E-02 0.254E-02 -.169E-01
   0.545E+01 0.236E+02 -.825E+03   -.509E+01 -.229E+02 0.825E+03   -.371E+00 -.652E+00 -.318E+00   0.312E-02 -.468E-03 -.221E-01
   0.324E-01 0.141E+02 -.254E+04   0.187E-01 -.142E+02 0.254E+04   -.527E-01 0.955E-01 0.103E+01   -.228E-02 -.701E-03 -.845E-02
   0.327E+02 0.420E+02 -.251E+04   -.330E+02 -.422E+02 0.251E+04   0.339E+00 0.249E+00 0.122E+01   0.339E-03 -.189E-03 -.876E-02
   -.353E+00 0.861E+00 0.261E+04   0.384E+00 -.856E+00 -.261E+04   0.311E-01 0.383E-02 -.110E+01   -.117E-02 0.277E-02 -.241E-02
   -.420E+01 0.725E+01 0.918E+03   0.423E+01 -.733E+01 -.918E+03   0.681E-01 0.823E-02 -.363E+00   0.104E-02 0.282E-02 -.171E-01
   0.758E+01 0.111E+02 -.784E+03   -.747E+01 -.112E+02 0.783E+03   -.124E+00 0.698E-01 0.531E+00   -.473E-03 0.335E-02 -.229E-01
   -.144E+01 -.489E-03 0.261E+04   0.134E+01 -.175E-02 -.261E+04   0.395E-01 -.212E-04 -.114E+01   -.974E-04 0.231E-02 -.162E-02
   -.939E+00 0.401E-02 0.923E+03   0.867E+00 -.698E-02 -.923E+03   0.334E-01 -.234E-03 -.639E+00   -.827E-03 0.318E-02 -.168E-01
   0.204E+01 0.148E-01 -.773E+03   -.195E+01 -.170E-01 0.773E+03   -.943E-01 -.713E-03 0.497E+00   0.550E-03 0.239E-02 -.228E-01
   -.108E+01 0.149E+02 -.252E+04   0.105E+01 -.151E+02 0.252E+04   0.247E-01 0.214E+00 0.101E+01   -.966E-03 0.145E-02 -.103E-01
   0.756E+02 -.161E-01 -.242E+04   -.768E+02 0.144E-01 0.242E+04   0.123E+01 0.213E-03 0.170E+01   -.216E-02 0.146E-02 -.121E-01
   -.353E+00 -.862E+00 0.261E+04   0.383E+00 0.854E+00 -.261E+04   0.311E-01 -.394E-02 -.110E+01   -.109E-02 0.531E-03 -.987E-03
   -.420E+01 -.724E+01 0.918E+03   0.423E+01 0.731E+01 -.918E+03   0.679E-01 -.845E-02 -.363E+00   0.765E-03 0.146E-02 -.170E-01
   0.758E+01 -.111E+02 -.784E+03   -.747E+01 0.112E+02 0.783E+03   -.124E+00 -.705E-01 0.531E+00   -.532E-03 0.390E-03 -.241E-01
   -.149E+01 -.119E+01 0.260E+04   0.148E+01 0.125E+01 -.260E+04   0.150E-01 -.885E-02 -.117E+01   0.156E-02 -.182E-02 -.137E-02
   -.115E+01 -.511E+01 0.918E+03   0.116E+01 0.506E+01 -.918E+03   -.252E-01 0.375E-01 -.598E+00   -.221E-02 -.257E-02 -.167E-01
   0.546E+01 -.235E+02 -.825E+03   -.510E+01 0.229E+02 0.825E+03   -.373E+00 0.652E+00 -.317E+00   0.284E-02 0.654E-03 -.237E-01
   -.113E+01 -.148E+02 -.252E+04   0.110E+01 0.150E+02 0.252E+04   0.265E-01 -.216E+00 0.101E+01   -.825E-03 0.562E-03 -.116E-01
   0.326E+02 -.419E+02 -.251E+04   -.329E+02 0.422E+02 0.251E+04   0.341E+00 -.250E+00 0.122E+01   0.230E-03 0.242E-03 -.104E-01
   -.696E+00 -.735E+00 0.260E+04   0.670E+00 0.734E+00 -.260E+04   0.500E-01 -.314E-03 -.115E+01   -.432E-02 -.267E-02 -.154E-02
   -.428E+01 0.203E+01 0.910E+03   0.431E+01 -.207E+01 -.909E+03   0.415E-01 -.467E-01 -.450E+00   0.558E-02 -.269E-02 -.167E-01
   0.128E+01 -.793E+01 -.806E+03   -.115E+01 0.798E+01 0.805E+03   -.139E+00 -.506E-01 0.612E+00   0.226E-03 -.312E-02 -.222E-01
   -.144E+01 0.379E-03 0.260E+04   0.127E+01 0.193E-02 -.260E+04   0.131E+00 0.463E-05 -.115E+01   0.332E-02 -.231E-02 -.295E-02
   -.101E+01 -.371E-03 0.914E+03   0.107E+01 0.364E-02 -.913E+03   -.949E-02 -.264E-03 -.550E+00   -.373E-02 -.315E-02 -.166E-01
   0.243E+01 -.289E-01 -.802E+03   -.246E+01 0.311E-01 0.801E+03   0.308E-01 0.215E-03 0.680E+00   0.561E-02 -.247E-02 -.233E-01
   0.714E-01 -.142E+02 -.254E+04   -.204E-01 0.143E+02 0.254E+04   -.547E-01 -.910E-01 0.103E+01   -.217E-02 -.130E-02 -.972E-02
   0.113E+02 -.412E-01 -.254E+04   -.113E+02 0.420E-01 0.254E+04   -.136E-01 0.250E-02 0.107E+01   0.156E-02 -.142E-02 -.845E-02
   -.525E+00 0.434E+00 0.260E+04   0.438E+00 -.444E+00 -.260E+04   0.602E-01 0.891E-03 -.112E+01   0.389E-02 -.248E-02 -.115E-02
   0.144E+01 0.206E+01 0.915E+03   -.146E+01 -.204E+01 -.914E+03   -.206E-01 -.253E-01 -.506E+00   -.561E-02 -.327E-02 -.166E-01
   -.927E+00 0.859E+01 -.803E+03   0.865E+00 -.856E+01 0.803E+03   0.633E-01 -.263E-01 0.528E+00   -.145E-03 -.397E-02 -.246E-01
   0.127E+00 0.857E+00 0.260E+04   -.124E+00 -.841E+00 -.260E+04   0.368E-01 -.531E-02 -.114E+01   -.125E-02 -.179E-02 -.126E-02
   0.333E+01 0.278E+01 0.912E+03   -.338E+01 -.275E+01 -.912E+03   -.482E-01 0.448E-01 -.315E+00   0.208E-02 -.309E-02 -.170E-01
   -.165E+01 0.102E+02 -.800E+03   0.164E+01 -.102E+02 0.800E+03   0.152E-01 -.166E-02 0.583E+00   -.345E-02 -.382E-04 -.228E-01
   0.938E+00 0.339E+02 -.252E+04   -.903E+00 -.343E+02 0.252E+04   -.447E-01 0.414E+00 0.109E+01   0.156E-02 -.181E-02 -.995E-02
   -.302E+02 0.423E+02 -.251E+04   0.306E+02 -.426E+02 0.250E+04   -.438E+00 0.257E+00 0.120E+01   -.435E-03 -.131E-02 -.110E-01
   -.862E+00 0.974E+00 0.260E+04   0.800E+00 -.985E+00 -.260E+04   0.715E-01 -.431E-02 -.113E+01   0.759E-03 0.510E-03 -.218E-02
   0.475E+01 0.301E+01 0.917E+03   -.485E+01 -.302E+01 -.917E+03   -.372E-01 -.153E-01 -.477E+00   -.789E-03 0.113E-02 -.168E-01
   -.959E+01 0.117E+02 -.796E+03   0.919E+01 -.117E+02 0.796E+03   0.418E+00 -.203E-02 0.111E+00   -.148E-05 -.397E-03 -.230E-01
   0.108E+00 -.708E-03 0.261E+04   -.135E+00 -.143E-02 -.260E+04   0.501E-01 -.265E-04 -.109E+01   0.516E-03 0.219E-02 -.137E-02
   -.249E+01 0.601E-02 0.918E+03   0.246E+01 -.875E-02 -.918E+03   0.209E-01 -.190E-03 -.326E+00   0.583E-03 0.286E-02 -.172E-01
   -.451E+01 0.121E-01 -.781E+03   0.447E+01 -.145E-01 0.781E+03   0.635E-01 -.466E-03 0.780E+00   0.167E-03 0.256E-02 -.239E-01
   0.141E+01 0.135E+03 -.233E+04   -.138E+01 -.136E+03 0.233E+04   -.313E-01 0.838E+00 0.145E+00   -.359E-03 -.156E-02 -.886E-02
   -.760E+02 0.388E-01 -.244E+04   0.775E+02 -.405E-01 0.243E+04   -.151E+01 0.122E-02 0.176E+01   0.189E-02 0.138E-02 -.121E-01
   -.862E+00 -.974E+00 0.260E+04   0.801E+00 0.982E+00 -.260E+04   0.715E-01 0.423E-02 -.113E+01   0.633E-03 0.255E-02 -.876E-03
   0.475E+01 -.301E+01 0.917E+03   -.485E+01 0.302E+01 -.917E+03   -.373E-01 0.152E-01 -.477E+00   -.518E-03 0.309E-02 -.167E-01
   -.960E+01 -.117E+02 -.796E+03   0.920E+01 0.117E+02 0.796E+03   0.419E+00 0.178E-02 0.111E+00   0.140E-03 0.381E-02 -.242E-01
   0.126E+00 -.857E+00 0.260E+04   -.124E+00 0.841E+00 -.260E+04   0.368E-01 0.526E-02 -.114E+01   -.109E-02 0.177E-02 0.595E-03
   0.332E+01 -.278E+01 0.912E+03   -.338E+01 0.275E+01 -.912E+03   -.480E-01 -.452E-01 -.314E+00   0.202E-02 0.310E-02 -.168E-01
   -.164E+01 -.101E+02 -.800E+03   0.163E+01 0.101E+02 0.800E+03   0.153E-01 0.351E-03 0.583E+00   -.315E-02 0.532E-04 -.244E-01
   0.145E+01 -.135E+03 -.233E+04   -.142E+01 0.136E+03 0.233E+04   -.330E-01 -.840E+00 0.147E+00   -.448E-03 0.325E-02 -.925E-02
   -.302E+02 -.424E+02 -.251E+04   0.306E+02 0.427E+02 0.250E+04   -.437E+00 -.255E+00 0.120E+01   -.278E-03 0.131E-02 -.125E-01
   -.525E+00 -.433E+00 0.260E+04   0.439E+00 0.447E+00 -.260E+04   0.602E-01 -.990E-03 -.112E+01   0.376E-02 -.580E-03 0.147E-03
   0.144E+01 -.206E+01 0.915E+03   -.146E+01 0.204E+01 -.914E+03   -.206E-01 0.250E-01 -.506E+00   -.537E-02 -.955E-03 -.164E-01
   -.940E+00 -.860E+01 -.803E+03   0.877E+00 0.858E+01 0.803E+03   0.634E-01 0.259E-01 0.528E+00   -.761E-04 0.606E-03 -.256E-01
   -.105E+00 0.826E-03 0.260E+04   0.460E-01 0.142E-02 -.260E+04   0.605E-01 -.176E-04 -.116E+01   -.278E-02 -.218E-02 0.724E-03
   0.139E+01 -.224E-02 0.914E+03   -.139E+01 0.532E-02 -.913E+03   0.229E-01 -.287E-03 -.545E+00   0.351E-02 -.287E-02 -.166E-01
   -.159E+01 -.825E-02 -.811E+03   0.158E+01 0.109E-01 0.810E+03   0.981E-02 0.996E-03 0.539E+00   -.636E-02 -.253E-02 -.234E-01
   0.942E+00 -.339E+02 -.252E+04   -.906E+00 0.343E+02 0.252E+04   -.457E-01 -.414E+00 0.110E+01   0.145E-02 -.486E-04 -.110E-01
   -.985E+01 0.240E-01 -.254E+04   0.100E+02 -.221E-01 0.253E+04   -.145E+00 -.172E-02 0.109E+01   -.131E-02 -.144E-02 -.119E-01
   0.135E+01 0.217E+03 -.185E+04   -.125E+01 -.250E+03 0.187E+04   -.933E-01 0.323E+02 -.213E+02   0.249E-03 -.296E-02 0.102E-02
   0.144E+01 -.217E+03 -.185E+04   -.136E+01 0.250E+03 0.187E+04   -.775E-01 -.323E+02 -.213E+02   0.245E-03 0.505E-02 0.849E-03
 -----------------------------------------------------------------------------------------------
   0.277E+00 -.250E-02 0.454E+02   -.121E-11 0.398E-12 -.455E-11   -.442E+00 -.109E-02 -.446E+02   -.487E-02 0.215E-02 -.830E+00
 
 
 POSITION                                       TOTAL-FORCE (eV/Angst)
 -----------------------------------------------------------------------------------
      0.00000      0.00000      0.00000         0.017023      0.004262      0.005758
      3.17448      0.00000      2.29051         0.084031      0.085947      0.083420
      1.60541     11.22022      4.52549        -0.004974      0.000691      0.009059
      2.38086      1.40264      0.00000        -0.001144     -0.047345     -0.006924
      0.79362      1.40264      2.29051        -0.008909      0.015742     -0.062322
      3.99138      1.42870      4.59397         0.002079     -0.006555      0.001791
      0.01385     11.20942      6.82127         0.003656     -0.001496      0.012868
      2.37243      1.38702      6.82112        -0.000306      0.000914      0.003725
      0.00000      2.80528      0.00000         0.058205      0.011154     -0.072403
      3.17448      2.80528      2.29051         0.097908     -0.067205      0.013268
      1.59296      2.79489      4.51691        -0.001147      0.001049      0.007975
      2.38086      4.20793      0.00000        -0.058614      0.000074     -0.024974
      0.79362      4.20793      2.29051        -0.037941      0.000011     -0.109020
      3.97345      4.20789      4.53505        -0.002962     -0.000514     -0.008359
      9.53085      2.78141      6.81805         0.003423     -0.002285      0.018704
      2.32476      4.20770      6.75765         0.001822     -0.000029      0.005335
      0.00000      5.61057      0.00000         0.058245     -0.010967     -0.072409
      3.17448      5.61057      2.29051         0.097887      0.067150      0.013124
      1.59293      5.62081      4.51691        -0.001337     -0.001672      0.008120
      2.38086      7.01321      0.00000        -0.001145      0.047462     -0.006841
      0.79362      7.01321      2.29051        -0.009022     -0.015855     -0.062313
      3.99146      6.98699      4.59394         0.000397      0.007326      0.002367
      9.53072      5.63415      6.81823         0.004468      0.000354      0.018222
      2.37227      7.02837      6.82097         0.001142     -0.002816      0.004485
      0.00000      8.41585      0.00000         0.016988     -0.004157      0.005770
      3.17448      8.41585      2.29051         0.083921     -0.086206      0.083155
      1.60539      8.41654      4.52550        -0.005140     -0.000679      0.008196
      2.38086      9.81850      0.00000        -0.046699      0.000028     -0.211467
      0.79362      9.81850      2.29051         0.054104     -0.000131     -0.063034
      3.97718      9.81833      4.52570         0.002857     -0.000025      0.002369
      0.01384      8.42703      6.82126         0.001803      0.004862      0.014832
      2.38917      9.81815      6.82788        -0.000776      0.001946      0.002480
      4.76172      0.00000      0.00000        -0.024936     -0.012444      0.001309
      7.93620      0.00000      2.29051        -0.043094     -0.000472     -0.034655
      6.35407     11.21861      4.53220         0.002651     -0.001883      0.007807
      7.14258      1.40264      0.00000         0.036086      0.008600     -0.018060
      5.55534      1.40264      2.29051        -0.098448      0.075548      0.201339
      8.73672      1.39831      4.52310         0.005830     -0.001626      0.007431
      4.77453     11.19542      6.83521        -0.001637     -0.001972      0.006280
      7.17184      1.38003      6.81449         0.006638      0.000039      0.006540
      4.76172      2.80528      0.00000         0.007649     -0.014970     -0.020065
      7.93620      2.80528      2.29051        -0.131395     -0.019213     -0.020150
      6.34376      2.80374      4.56167         0.003325     -0.002946      0.000210
      7.14258      4.20793      0.00000         0.021248      0.000051     -0.001704
      5.55534      4.20793      2.29051        -0.004377     -0.000053      0.164421
      8.74189      4.20791      4.50918         0.007481     -0.000271      0.002434
      4.77794      2.79980      6.91345         0.003312      0.003235     -0.012040
      7.22501      4.20771      6.77932         0.006912      0.001029     -0.001092
      4.76172      5.61057      0.00000         0.007652      0.015124     -0.020092
      7.93620      5.61057      2.29051        -0.131397      0.019291     -0.020039
      6.34373      5.61193      4.56168         0.003847      0.002465     -0.000061
      7.14258      7.01321      0.00000         0.036074     -0.008507     -0.017968
      5.55534      7.01321      2.29051        -0.098275     -0.075668      0.201161
      8.73670      7.01747      4.52313         0.005688      0.000640      0.007022
      4.77802      5.61555      6.91348         0.002431     -0.005829     -0.010868
      7.17186      7.03525      6.81453         0.006888      0.000792      0.007560
      4.76172      8.41585      0.00000        -0.024910      0.012601      0.001364
      7.93620      8.41585      2.29051        -0.043071      0.000482     -0.034578
      6.35410      8.41820      4.53223         0.002996      0.001599      0.007949
      7.14258      9.81850      0.00000        -0.003352      0.000068     -0.012091
      5.55534      9.81850      2.29051         0.018450     -0.000054     -0.025735
      8.74175      9.81845      4.52629        -0.001697      0.001103      0.004748
      4.77462      8.44096      6.83524        -0.001698      0.001147      0.006446
      7.16288      9.81835      6.82317         0.005445     -0.001199      0.013244
      4.77125      3.52160      8.79992         0.004074     -0.000890     -0.012518
      4.77103      4.89331      8.79989         0.003765      0.003146     -0.010508
 -----------------------------------------------------------------------------------
    total drift:                               -0.170622     -0.001448     -0.028495


--------------------------------------------------------------------------------------------------------



  FREE ENERGIE OF THE ION-ELECTRON SYSTEM (eV)
  ---------------------------------------------------
  free  energy   TOTEN  =      -417.53197914 eV

  energy  without entropy=     -416.86604406  energy(sigma->0) =     -417.19901160
 
 d Force = 0.4589024E-03[ 0.397E-03, 0.520E-03]  d Energy = 0.4314595E-03 0.274E-04
 d Force = 0.1694566E+02[ 0.170E+02, 0.169E+02]  d Ewald  = 0.1694565E+02 0.268E-05


--------------------------------------------------------------------------------------------------------


    POTLOK:  cpu time    0.0346: real time    0.0350


--------------------------------------------------------------------------------------------------------


 stress matrix after NEB project (eV)
    -57.16433     -0.00072     -0.27030
     -0.00072    -81.17207      0.00394
     -0.27030      0.00394      1.05420
  FORCES: max atom, RMS     0.019151    0.007174
  FORCE total and by dimension    0.058281    0.018704
  Stress total and by dimension   99.287073   81.172070
 Quasi-Newton relaxation of ions (Broydens 2nd method)
  g(Force)  = 0.655E-04   g(Stress)= 0.000E+00

 retain information from N=  1 steps
 eigenvalues of (default step * inverse Hessian matrix)
  average eigenvalue of G=   7.1354
 eigenvalue spectrum of G is  7.1354


--------------------------------------------------------------------------------------------------------


  
 reached required accuracy - stopping structural energy minimisation
     LOOP+:  cpu time   69.4762: real time   69.8125
    4ORBIT:  cpu time    0.0000: real time    0.0000

 total amount of memory used by VASP MPI-rank0    74806. kBytes
=======================================================================

   base      :      30000. kBytes
   nonlr-proj:       5519. kBytes
   fftplans  :       3937. kBytes
   grid      :       6141. kBytes
   one-center:        139. kBytes
   wavefun   :      29070. kBytes
 
  
  
 General timing and accounting informations for this job:
 ========================================================
  
                  Total CPU time used (sec):     1378.386
                            User time (sec):     1188.856
                          System time (sec):      189.530
                         Elapsed time (sec):     1388.723
  
                   Maximum memory used (kb):     1102204.
                   Average memory used (kb):           0.
  
                          Minor page faults:       282835
                          Major page faults:            0
                 Voluntary context switches:     96675996
