       N       E                     dE             d eps       ncg     rms          rms(c)
DAV:   1     0.429552705630E+04    0.42955E+04   -0.26766E+05  3136   0.127E+03
DAV:   2    -0.669482626295E+02   -0.43625E+04   -0.40285E+04  3710   0.278E+02
DAV:   3    -0.394130631733E+03   -0.32718E+03   -0.29657E+03  3738   0.701E+01
DAV:   4    -0.409634345580E+03   -0.15504E+02   -0.14653E+02  4046   0.140E+01
DAV:   5    -0.410026527779E+03   -0.39218E+00   -0.38970E+00  3934   0.234E+00    0.858E+01
RMM:   6    -0.398186131494E+03    0.11840E+02   -0.86049E+01  3149   0.143E+01    0.658E+01
RMM:   7    -0.679538691932E+03   -0.28135E+03   -0.42154E+02  3541   0.185E+01    0.113E+02
RMM:   8    -0.511402156855E+03    0.16814E+03   -0.13455E+02  3136   0.117E+01    0.904E+01
RMM:   9    -0.438478731060E+03    0.72923E+02   -0.61308E+01  3144   0.950E+00    0.553E+01
RMM:  10    -0.417339437822E+03    0.21139E+02   -0.82876E+01  3137   0.108E+01    0.576E+01
RMM:  11    -0.398802463683E+03    0.18537E+02   -0.17332E+01  3141   0.478E+00    0.452E+01
RMM:  12    -0.389406610395E+03    0.93959E+01   -0.43513E+00  3142   0.263E+00    0.238E+01
RMM:  13    -0.388827081896E+03    0.57953E+00   -0.40610E+00  3145   0.250E+00    0.236E+01
RMM:  14    -0.384352055767E+03    0.44750E+01   -0.24146E+00  3145   0.192E+00    0.149E+01
RMM:  15    -0.383413612918E+03    0.93844E+00   -0.11136E+00  3150   0.125E+00    0.125E+01
RMM:  16    -0.383268990147E+03    0.14462E+00   -0.53385E-01  3151   0.859E-01    0.114E+01
RMM:  17    -0.382799422461E+03    0.46957E+00   -0.20521E-01  3159   0.531E-01    0.898E+00
RMM:  18    -0.382494087269E+03    0.30534E+00   -0.10968E-01  3153   0.413E-01    0.648E+00
RMM:  19    -0.382367456832E+03    0.12663E+00   -0.15966E-01  3146   0.502E-01    0.462E+00
RMM:  20    -0.382335465958E+03    0.31991E-01   -0.93061E-02  3149   0.374E-01    0.389E+00
RMM:  21    -0.382319268326E+03    0.16198E-01   -0.44755E-02  3148   0.259E-01    0.356E+00
RMM:  22    -0.382221926220E+03    0.97342E-01   -0.33692E-02  3146   0.227E-01    0.181E+00
RMM:  23    -0.382207294091E+03    0.14632E-01   -0.82537E-03  3188   0.107E-01    0.137E+00
RMM:  24    -0.382197745946E+03    0.95481E-02   -0.44792E-03  3156   0.814E-02    0.106E+00
RMM:  25    -0.382191630966E+03    0.61150E-02   -0.39798E-03  3148   0.736E-02    0.849E-01
RMM:  26    -0.382187632429E+03    0.39985E-02   -0.33482E-03  3148   0.657E-02    0.559E-01
RMM:  27    -0.382185730584E+03    0.19018E-02   -0.15758E-03  3149   0.472E-02    0.313E-01
RMM:  28    -0.382185279143E+03    0.45144E-03   -0.54362E-04  3183   0.266E-02    0.252E-01
RMM:  29    -0.382184776251E+03    0.50289E-03   -0.29634E-04  3166   0.190E-02    0.141E-01
RMM:  30    -0.382184675777E+03    0.10047E-03   -0.22106E-04  3157   0.162E-02    0.681E-02
RMM:  31    -0.382184738578E+03   -0.62801E-04   -0.12285E-04  3183   0.119E-02    0.383E-02
RMM:  32    -0.382184788221E+03   -0.49643E-04   -0.22605E-05  3304   0.525E-03    0.398E-02
RMM:  33    -0.382184862411E+03   -0.74190E-04   -0.92263E-06  2909   0.344E-03    0.369E-02
RMM:  34    -0.382184898045E+03   -0.35634E-04   -0.36709E-06  2140   0.226E-03    0.286E-02
RMM:  35    -0.382184991788E+03   -0.93743E-04   -0.77198E-06  2520   0.277E-03    0.181E-02
RMM:  36    -0.382185044829E+03   -0.53041E-04   -0.38118E-06  2142   0.196E-03    0.114E-02
RMM:  37    -0.382185108660E+03   -0.63831E-04   -0.30230E-06  2023   0.164E-03    0.788E-03
RMM:  38    -0.382185152405E+03   -0.43746E-04   -0.23069E-06  1953   0.135E-03    0.778E-03
RMM:  39    -0.382185204144E+03   -0.51738E-04   -0.36577E-06  2126   0.153E-03    0.462E-03
RMM:  40    -0.382185218944E+03   -0.14801E-04   -0.10953E-06  1796   0.895E-04    0.580E-03
RMM:  41    -0.382185232635E+03   -0.13690E-04   -0.53593E-07  1353   0.646E-04    0.262E-03
RMM:  42    -0.382185240173E+03   -0.75385E-05   -0.28400E-07  1042   0.505E-04    0.294E-03
RMM:  43    -0.382185251861E+03   -0.11688E-04   -0.43593E-07  1513   0.578E-04    0.214E-03
RMM:  44    -0.382185255595E+03   -0.37341E-05   -0.14328E-07   712   0.370E-04    0.196E-03
RMM:  45    -0.382185259188E+03   -0.35931E-05   -0.65411E-08   581   0.333E-04    0.126E-03
RMM:  46    -0.382185265771E+03   -0.65828E-05   -0.61798E-07  1635   0.753E-04    0.176E-02
RMM:  47    -0.382185272472E+03   -0.67008E-05   -0.69300E-07  1651   0.789E-04    0.303E-02
RMM:  48    -0.382185274193E+03   -0.17208E-05   -0.13661E-07   832   0.407E-04    0.283E-02
RMM:  49    -0.382185273447E+03    0.74539E-06   -0.15534E-08   384   0.312E-04
   1 F= -.41682118E+03 E0= -.41649082E+03  d E =-.416821E+03
       N       E                     dE             d eps       ncg     rms          rms(c)
DAV:   1    -0.382417804917E+03   -0.23253E+00   -0.42020E+01  3220   0.871E+00    0.237E+00
RMM:   2    -0.382537899350E+03   -0.12009E+00   -0.82721E-01  3153   0.143E+00    0.349E+00
RMM:   3    -0.382505414489E+03    0.32485E-01   -0.49104E-02  3256   0.291E-01    0.245E+00
RMM:   4    -0.382854607307E+03   -0.34919E+00   -0.92672E-02  3160   0.333E-01    0.671E+00
RMM:   5    -0.382559382577E+03    0.29522E+00   -0.10153E-01  3150   0.384E-01    0.364E+00
RMM:   6    -0.382502421599E+03    0.56961E-01   -0.51390E-02  3156   0.280E-01    0.196E+00
RMM:   7    -0.382483271055E+03    0.19151E-01   -0.21888E-02  3149   0.184E-01    0.957E-01
RMM:   8    -0.382478272909E+03    0.49981E-02   -0.82072E-03  3153   0.112E-01    0.577E-01
RMM:   9    -0.382476548139E+03    0.17248E-02   -0.26254E-03  3152   0.635E-02    0.335E-01
RMM:  10    -0.382475791098E+03    0.75704E-03   -0.91105E-04  3151   0.386E-02    0.169E-01
RMM:  11    -0.382475604558E+03    0.18654E-03   -0.41475E-04  3153   0.259E-02    0.131E-01
RMM:  12    -0.382475526005E+03    0.78553E-04   -0.52290E-04  3152   0.289E-02    0.106E-01
RMM:  13    -0.382475498041E+03    0.27965E-04   -0.19056E-04  3150   0.174E-02    0.513E-02
RMM:  14    -0.382475518143E+03   -0.20102E-04   -0.47933E-05  3158   0.891E-03    0.423E-02
RMM:  15    -0.382475526665E+03   -0.85223E-05   -0.14330E-05  3130   0.510E-03    0.162E-02
RMM:  16    -0.382475537626E+03   -0.10960E-04   -0.57009E-06  2762   0.319E-03    0.115E-02
RMM:  17    -0.382475555073E+03   -0.17448E-04   -0.28541E-06  1922   0.223E-03    0.893E-03
RMM:  18    -0.382475565052E+03   -0.99782E-05   -0.11087E-06  1754   0.147E-03    0.507E-03
RMM:  19    -0.382475577345E+03   -0.12293E-04   -0.74090E-07  1760   0.101E-03    0.386E-03
RMM:  20    -0.382475591233E+03   -0.13888E-04   -0.85938E-07  1748   0.908E-04    0.158E-03
RMM:  21    -0.382475597972E+03   -0.67386E-05   -0.36015E-07  1266   0.574E-04    0.143E-03
RMM:  22    -0.382475609150E+03   -0.11178E-04   -0.71518E-07  1693   0.795E-04    0.136E-03
RMM:  23    -0.382475619539E+03   -0.10389E-04   -0.90797E-07  1650   0.804E-04    0.112E-03
RMM:  24    -0.382475625009E+03   -0.54706E-05   -0.53921E-07  1307   0.610E-04    0.174E-03
RMM:  25    -0.382475627094E+03   -0.20846E-05   -0.23691E-07   932   0.437E-04    0.120E-03
RMM:  26    -0.382475628807E+03   -0.17130E-05   -0.16395E-07   936   0.407E-04    0.106E-03
RMM:  27    -0.382475630384E+03   -0.15772E-05   -0.14154E-07   871   0.390E-04    0.653E-04
RMM:  28    -0.382475630862E+03   -0.47799E-06   -0.28585E-08   456   0.309E-04
   2 F= -.41713359E+03 E0= -.41680403E+03  d E =-.312416E+00
       N       E                     dE             d eps       ncg     rms          rms(c)
DAV:   1    -0.382591797928E+03   -0.11617E+00   -0.60082E+01  3136   0.105E+01    0.189E+00
RMM:   2    -0.382715652377E+03   -0.12385E+00   -0.10027E+00  3154   0.165E+00    0.285E+00
RMM:   3    -0.382687218251E+03    0.28434E-01   -0.67392E-02  3213   0.354E-01    0.186E+00
RMM:   4    -0.382872143937E+03   -0.18493E+00   -0.56080E-02  3165   0.263E-01    0.475E+00
RMM:   5    -0.382749975349E+03    0.12217E+00   -0.83088E-02  3152   0.325E-01    0.349E+00
RMM:   6    -0.382681149229E+03    0.68826E-01   -0.35066E-02  3156   0.233E-01    0.151E+00
RMM:   7    -0.382672108024E+03    0.90412E-02   -0.16276E-02  3153   0.160E-01    0.935E-01
RMM:   8    -0.382668765404E+03    0.33426E-02   -0.77317E-03  3153   0.111E-01    0.610E-01
RMM:   9    -0.382666506628E+03    0.22588E-02   -0.25532E-03  3153   0.645E-02    0.278E-01
RMM:  10    -0.382665900563E+03    0.60607E-03   -0.78733E-04  3152   0.359E-02    0.147E-01
RMM:  11    -0.382665705376E+03    0.19519E-03   -0.36876E-04  3150   0.245E-02    0.105E-01
RMM:  12    -0.382665627721E+03    0.77655E-04   -0.41474E-04  3155   0.255E-02    0.880E-02
RMM:  13    -0.382665600824E+03    0.26897E-04   -0.12613E-04  3151   0.142E-02    0.519E-02
RMM:  14    -0.382665603861E+03   -0.30370E-05   -0.34471E-05  3150   0.758E-03    0.419E-02
RMM:  15    -0.382665600351E+03    0.35101E-05   -0.99798E-06  3127   0.425E-03    0.137E-02
RMM:  16    -0.382665604349E+03   -0.39977E-05   -0.22875E-06  1793   0.216E-03    0.777E-03
RMM:  17    -0.382665614474E+03   -0.10125E-04   -0.13643E-06  1757   0.155E-03    0.750E-03
RMM:  18    -0.382665621052E+03   -0.65775E-05   -0.72567E-07  1731   0.116E-03    0.384E-03
RMM:  19    -0.382665626311E+03   -0.52596E-05   -0.36024E-07  1693   0.717E-04    0.291E-03
RMM:  20    -0.382665633296E+03   -0.69850E-05   -0.36630E-07  1450   0.627E-04    0.114E-03
RMM:  21    -0.382665637415E+03   -0.41183E-05   -0.20157E-07  1107   0.484E-04    0.101E-03
RMM:  22    -0.382665644173E+03   -0.67582E-05   -0.46983E-07  1539   0.658E-04    0.112E-03
RMM:  23    -0.382665648458E+03   -0.42854E-05   -0.29625E-07  1157   0.511E-04    0.104E-03
RMM:  24    -0.382665651787E+03   -0.33283E-05   -0.29830E-07  1260   0.504E-04    0.824E-04
RMM:  25    -0.382665654094E+03   -0.23079E-05   -0.21583E-07   993   0.440E-04    0.872E-04
RMM:  26    -0.382665655034E+03   -0.93938E-06   -0.82658E-08   658   0.358E-04
   3 F= -.41735977E+03 E0= -.41703183E+03  d E =-.226173E+00
       N       E                     dE             d eps       ncg     rms          rms(c)
DAV:   1    -0.382705643501E+03   -0.39989E-01   -0.22606E+01  3136   0.692E+00    0.835E-01
RMM:   2    -0.382766990972E+03   -0.61347E-01   -0.42579E-01  3164   0.103E+00    0.180E+00
RMM:   3    -0.382771005701E+03   -0.40147E-02   -0.32762E-02  3204   0.235E-01    0.186E+00
RMM:   4    -0.382747479162E+03    0.23527E-01   -0.12063E-02  3166   0.133E-01    0.944E-01
RMM:   5    -0.382745701757E+03    0.17774E-02   -0.78036E-03  3154   0.110E-01    0.104E+00
RMM:   6    -0.382740832513E+03    0.48692E-02   -0.50016E-03  3155   0.901E-02    0.531E-01
RMM:   7    -0.382740828632E+03    0.38802E-05   -0.32015E-03  3153   0.716E-02    0.530E-01
RMM:   8    -0.382739859123E+03    0.96951E-03   -0.22357E-03  3158   0.607E-02    0.315E-01
RMM:   9    -0.382739172668E+03    0.68645E-03   -0.81051E-04  3153   0.370E-02    0.113E-01
RMM:  10    -0.382739068633E+03    0.10404E-03   -0.17929E-04  3152   0.174E-02    0.713E-02
RMM:  11    -0.382739026094E+03    0.42539E-04   -0.98124E-05  3148   0.127E-02    0.542E-02
RMM:  12    -0.382739006590E+03    0.19504E-04   -0.79660E-05  3154   0.110E-02    0.383E-02
RMM:  13    -0.382739001061E+03    0.55289E-05   -0.21930E-05  3137   0.595E-03    0.257E-02
RMM:  14    -0.382738999655E+03    0.14062E-05   -0.64606E-06  2802   0.331E-03    0.199E-02
RMM:  15    -0.382738996844E+03    0.28116E-05   -0.20285E-06  1757   0.208E-03    0.670E-03
RMM:  16    -0.382738996633E+03    0.21017E-06   -0.65251E-07  1653   0.120E-03
   4 F= -.41746045E+03 E0= -.41713365E+03  d E =-.100689E+00
       N       E                     dE             d eps       ncg     rms          rms(c)
DAV:   1    -0.382716988926E+03    0.22008E-01   -0.57337E+01  3136   0.114E+01    0.136E+00
RMM:   2    -0.382910369313E+03   -0.19338E+00   -0.11648E+00  3166   0.167E+00    0.339E+00
RMM:   3    -0.382879195673E+03    0.31174E-01   -0.86184E-02  3200   0.379E-01    0.266E+00
RMM:   4    -0.382844159086E+03    0.35037E-01   -0.37684E-02  3157   0.236E-01    0.199E+00
RMM:   5    -0.382822440116E+03    0.21719E-01   -0.17259E-02  3155   0.165E-01    0.140E+00
RMM:   6    -0.382813506553E+03    0.89336E-02   -0.97866E-03  3152   0.128E-01    0.781E-01
RMM:   7    -0.382814486849E+03   -0.98030E-03   -0.74430E-03  3153   0.109E-01    0.898E-01
RMM:   8    -0.382810740439E+03    0.37464E-02   -0.50392E-03  3153   0.913E-02    0.423E-01
RMM:   9    -0.382809402323E+03    0.13381E-02   -0.16755E-03  3154   0.531E-02    0.153E-01
RMM:  10    -0.382809260319E+03    0.14200E-03   -0.33283E-04  3153   0.239E-02    0.112E-01
RMM:  11    -0.382809171925E+03    0.88394E-04   -0.18276E-04  3150   0.171E-02    0.722E-02
RMM:  12    -0.382809136492E+03    0.35433E-04   -0.11542E-04  3149   0.136E-02    0.454E-02
RMM:  13    -0.382809135452E+03    0.10398E-05   -0.44646E-05  3144   0.839E-03    0.311E-02
RMM:  14    -0.382809130579E+03    0.48727E-05   -0.11689E-05  3128   0.444E-03    0.199E-02
RMM:  15    -0.382809128840E+03    0.17394E-05   -0.22988E-06  1822   0.219E-03    0.889E-03
RMM:  16    -0.382809129839E+03   -0.99921E-06   -0.11160E-06  1720   0.153E-03
   5 F= -.41757975E+03 E0= -.41725452E+03  d E =-.119295E+00
       N       E                     dE             d eps       ncg     rms          rms(c)
DAV:   1    -0.382757691127E+03    0.51438E-01   -0.42358E+01  3136   0.988E+00    0.124E+00
RMM:   2    -0.382914489554E+03   -0.15680E+00   -0.88981E-01  3168   0.144E+00    0.316E+00
RMM:   3    -0.382877317061E+03    0.37172E-01   -0.64946E-02  3194   0.328E-01    0.221E+00
RMM:   4    -0.382865006097E+03    0.12311E-01   -0.32632E-02  3156   0.218E-01    0.209E+00
RMM:   5    -0.382837982374E+03    0.27024E-01   -0.14203E-02  3154   0.150E-01    0.122E+00
RMM:   6    -0.382831409426E+03    0.65729E-02   -0.69312E-03  3153   0.109E-01    0.730E-01
RMM:   7    -0.382831938404E+03   -0.52898E-03   -0.56750E-03  3154   0.954E-02    0.802E-01
RMM:   8    -0.382828797288E+03    0.31411E-02   -0.37889E-03  3155   0.791E-02    0.379E-01
RMM:   9    -0.382827746628E+03    0.10507E-02   -0.11811E-03  3154   0.444E-02    0.139E-01
RMM:  10    -0.382827648201E+03    0.98427E-04   -0.23808E-04  3151   0.202E-02    0.103E-01
RMM:  11    -0.382827581975E+03    0.66226E-04   -0.11816E-04  3147   0.136E-02    0.622E-02
RMM:  12    -0.382827563389E+03    0.18586E-04   -0.76500E-05  3149   0.111E-02    0.477E-02
RMM:  13    -0.382827562840E+03    0.54875E-06   -0.33805E-05  3140   0.732E-03    0.369E-02
RMM:  14    -0.382827560358E+03    0.24823E-05   -0.11563E-05  3113   0.441E-03    0.232E-02
RMM:  15    -0.382827558594E+03    0.17643E-05   -0.41458E-06  2287   0.271E-03    0.102E-02
RMM:  16    -0.382827559609E+03   -0.10153E-05   -0.94398E-07  1702   0.145E-03    0.462E-03
RMM:  17    -0.382827563050E+03   -0.34406E-05   -0.58420E-07  1699   0.107E-03    0.453E-03
RMM:  18    -0.382827565497E+03   -0.24475E-05   -0.27487E-07  1673   0.752E-04    0.276E-03
RMM:  19    -0.382827567269E+03   -0.17721E-05   -0.57397E-08   774   0.400E-04    0.213E-03
RMM:  20    -0.382827570496E+03   -0.32266E-05   -0.10309E-07   961   0.432E-04    0.125E-03
RMM:  21    -0.382827572461E+03   -0.19650E-05   -0.67651E-08   735   0.386E-04    0.787E-04
RMM:  22    -0.382827575079E+03   -0.26179E-05   -0.12058E-07   973   0.414E-04    0.597E-04
RMM:  23    -0.382827577275E+03   -0.21966E-05   -0.12889E-07   910   0.389E-04    0.413E-04
RMM:  24    -0.382827578741E+03   -0.14651E-05   -0.46155E-08   554   0.342E-04    0.405E-04
RMM:  25    -0.382827580506E+03   -0.17658E-05   -0.16021E-07   948   0.411E-04    0.497E-04
RMM:  26    -0.382827581110E+03   -0.60357E-06   -0.30047E-08   439   0.318E-04
   6 F= -.41764692E+03 E0= -.41732279E+03  d E =-.671659E-01
       N       E                     dE             d eps       ncg     rms          rms(c)
DAV:   1    -0.382800119355E+03    0.27461E-01   -0.14660E+01  3136   0.576E+00    0.732E-01
RMM:   2    -0.382855931188E+03   -0.55812E-01   -0.30107E-01  3165   0.847E-01    0.195E+00
RMM:   3    -0.382839344857E+03    0.16586E-01   -0.22209E-02  3187   0.193E-01    0.124E+00
RMM:   4    -0.382838439133E+03    0.90572E-03   -0.11633E-02  3157   0.130E-01    0.132E+00
RMM:   5    -0.382827104584E+03    0.11335E-01   -0.52406E-03  3153   0.907E-02    0.721E-01
RMM:   6    -0.382824893839E+03    0.22107E-02   -0.22610E-03  3154   0.621E-02    0.444E-01
RMM:   7    -0.382825082057E+03   -0.18822E-03   -0.20375E-03  3152   0.574E-02    0.476E-01
RMM:   8    -0.382824009400E+03    0.10727E-02   -0.13680E-03  3157   0.475E-02    0.237E-01
RMM:   9    -0.382823620936E+03    0.38846E-03   -0.41823E-04  3153   0.264E-02    0.935E-02
RMM:  10    -0.382823572112E+03    0.48823E-04   -0.86705E-05  3149   0.122E-02    0.639E-02
RMM:  11    -0.382823546166E+03    0.25946E-04   -0.39988E-05  3143   0.784E-03    0.382E-02
RMM:  12    -0.382823539895E+03    0.62714E-05   -0.29534E-05  3151   0.690E-03    0.328E-02
RMM:  13    -0.382823537641E+03    0.22537E-05   -0.11634E-05  3129   0.433E-03    0.219E-02
RMM:  14    -0.382823537062E+03    0.57894E-06   -0.38476E-06  2200   0.263E-03
   7 F= -.41767667E+03 E0= -.41735303E+03  d E =-.297527E-01
       N       E                     dE             d eps       ncg     rms          rms(c)
DAV:   1    -0.382779382507E+03    0.44155E-01   -0.18705E+01  3136   0.637E+00    0.793E-01
RMM:   2    -0.382852684426E+03   -0.73302E-01   -0.36216E-01  3162   0.950E-01    0.231E+00
RMM:   3    -0.382823709188E+03    0.28975E-01   -0.27205E-02  3185   0.216E-01    0.125E+00
RMM:   4    -0.382824719245E+03   -0.10101E-02   -0.13320E-02  3157   0.140E-01    0.142E+00
RMM:   5    -0.382811835368E+03    0.12884E-01   -0.63321E-03  3153   0.997E-02    0.803E-01
RMM:   6    -0.382809096653E+03    0.27387E-02   -0.26782E-03  3155   0.676E-02    0.495E-01
RMM:   7    -0.382809402576E+03   -0.30592E-03   -0.26979E-03  3152   0.659E-02    0.539E-01
RMM:   8    -0.382808029944E+03    0.13726E-02   -0.17390E-03  3158   0.535E-02    0.270E-01
RMM:   9    -0.382807548152E+03    0.48179E-03   -0.52293E-04  3151   0.295E-02    0.116E-01
RMM:  10    -0.382807473223E+03    0.74929E-04   -0.11910E-04  3149   0.143E-02    0.790E-02
RMM:  11    -0.382807433985E+03    0.39239E-04   -0.53832E-05  3145   0.901E-03    0.459E-02
RMM:  12    -0.382807424964E+03    0.90208E-05   -0.39477E-05  3150   0.795E-03    0.393E-02
RMM:  13    -0.382807421542E+03    0.34220E-05   -0.16203E-05  3137   0.512E-03    0.265E-02
RMM:  14    -0.382807420574E+03    0.96745E-06   -0.54679E-06  2605   0.307E-03
   8 F= -.41770308E+03 E0= -.41737978E+03  d E =-.264132E-01
       N       E                     dE             d eps       ncg     rms          rms(c)
DAV:   1    -0.382774865700E+03    0.32556E-01   -0.98835E+00  3164   0.450E+00    0.539E-01
RMM:   2    -0.382811641750E+03   -0.36776E-01   -0.17556E-01  3161   0.680E-01    0.166E+00
RMM:   3    -0.382795686742E+03    0.15955E-01   -0.13565E-02  3192   0.154E-01    0.829E-01
RMM:   4    -0.382796006298E+03   -0.31956E-03   -0.59992E-03  3158   0.953E-02    0.934E-01
RMM:   5    -0.382790519963E+03    0.54863E-02   -0.29703E-03  3153   0.685E-02    0.556E-01
RMM:   6    -0.382789227184E+03    0.12928E-02   -0.13550E-03  3154   0.479E-02    0.344E-01
RMM:   7    -0.382789448931E+03   -0.22175E-03   -0.15120E-03  3152   0.491E-02    0.386E-01
RMM:   8    -0.382788772055E+03    0.67688E-03   -0.90708E-04  3156   0.386E-02    0.199E-01
RMM:   9    -0.382788536863E+03    0.23519E-03   -0.27810E-04  3153   0.215E-02    0.958E-02
RMM:  10    -0.382788481013E+03    0.55849E-04   -0.69983E-05  3151   0.110E-02    0.618E-02
RMM:  11    -0.382788456552E+03    0.24462E-04   -0.30358E-05  3139   0.669E-03    0.355E-02
RMM:  12    -0.382788450097E+03    0.64549E-05   -0.23443E-05  3144   0.613E-03    0.300E-02
RMM:  13    -0.382788448335E+03    0.17624E-05   -0.92372E-06  3117   0.387E-03    0.220E-02
RMM:  14    -0.382788447252E+03    0.10822E-05   -0.29363E-06  1974   0.232E-03    0.135E-02
RMM:  15    -0.382788446652E+03    0.60067E-06   -0.13199E-06  1698   0.171E-03
   9 F= -.41771842E+03 E0= -.41739518E+03  d E =-.153390E-01
       N       E                     dE             d eps       ncg     rms          rms(c)
DAV:   1    -0.382738997918E+03    0.49449E-01   -0.14318E+01  3136   0.534E+00    0.636E-01
RMM:   2    -0.382791015285E+03   -0.52017E-01   -0.24364E-01  3159   0.813E-01    0.197E+00
RMM:   3    -0.382767450837E+03    0.23564E-01   -0.19079E-02  3193   0.184E-01    0.943E-01
RMM:   4    -0.382767983585E+03   -0.53275E-03   -0.81860E-03  3158   0.112E-01    0.108E+00
RMM:   5    -0.382760742143E+03    0.72414E-02   -0.40111E-03  3153   0.798E-02    0.649E-01
RMM:   6    -0.382758997246E+03    0.17449E-02   -0.19758E-03  3154   0.577E-02    0.407E-01
RMM:   7    -0.382759355100E+03   -0.35785E-03   -0.22940E-03  3152   0.604E-02    0.465E-01
RMM:   8    -0.382758349490E+03    0.10056E-02   -0.12783E-03  3157   0.458E-02    0.240E-01
RMM:   9    -0.382758017534E+03    0.33196E-03   -0.38838E-04  3153   0.255E-02    0.120E-01
RMM:  10    -0.382757926976E+03    0.90558E-04   -0.10152E-04  3149   0.132E-02    0.761E-02
RMM:  11    -0.382757888706E+03    0.38270E-04   -0.45056E-05  3143   0.809E-03    0.441E-02
RMM:  12    -0.382757877006E+03    0.11700E-04   -0.33066E-05  3147   0.728E-03    0.351E-02
RMM:  13    -0.382757873949E+03    0.30576E-05   -0.13042E-05  3132   0.460E-03    0.260E-02
RMM:  14    -0.382757871840E+03    0.21082E-05   -0.45722E-06  2387   0.281E-03    0.159E-02
RMM:  15    -0.382757870220E+03    0.16199E-05   -0.19942E-06  1727   0.205E-03    0.538E-03
RMM:  16    -0.382757870328E+03   -0.10767E-06   -0.46021E-07  1654   0.105E-03
  10 F= -.41773146E+03 E0= -.41740820E+03  d E =-.130364E-01
       N       E                     dE             d eps       ncg     rms          rms(c)
DAV:   1    -0.382733245233E+03    0.24625E-01   -0.42689E+00  3164   0.287E+00    0.338E-01
RMM:   2    -0.382747624417E+03   -0.14379E-01   -0.68776E-02  3159   0.439E-01    0.101E+00
RMM:   3    -0.382741132950E+03    0.64915E-02   -0.54123E-03  3198   0.988E-02    0.474E-01
RMM:   4    -0.382741128274E+03    0.46759E-05   -0.22542E-03  3155   0.594E-02    0.550E-01
RMM:   5    -0.382739330693E+03    0.17976E-02   -0.98404E-04  3153   0.400E-02    0.319E-01
RMM:   6    -0.382738941138E+03    0.38956E-03   -0.59041E-04  3154   0.314E-02    0.211E-01
RMM:   7    -0.382739056483E+03   -0.11535E-03   -0.72493E-04  3151   0.340E-02    0.244E-01
RMM:   8    -0.382738778805E+03    0.27768E-03   -0.34589E-04  3156   0.238E-02    0.132E-01
RMM:   9    -0.382738689157E+03    0.89648E-04   -0.10477E-04  3148   0.132E-02    0.706E-02
RMM:  10    -0.382738656775E+03    0.32382E-04   -0.29811E-05  3141   0.718E-03    0.432E-02
RMM:  11    -0.382738644199E+03    0.12576E-04   -0.13341E-05  3126   0.435E-03    0.238E-02
RMM:  12    -0.382738640425E+03    0.37735E-05   -0.96140E-06  3122   0.393E-03    0.186E-02
RMM:  13    -0.382738639650E+03    0.77567E-06   -0.32589E-06  1985   0.243E-03
  11 F= -.41773718E+03 E0= -.41741378E+03  d E =-.572373E-02
       N       E                     dE             d eps       ncg     rms          rms(c)
DAV:   1    -0.382700357366E+03    0.38283E-01   -0.77303E+00  3136   0.384E+00    0.453E-01
RMM:   2    -0.382727989883E+03   -0.27633E-01   -0.12358E-01  3159   0.591E-01    0.142E+00
RMM:   3    -0.382713683934E+03    0.14306E-01   -0.96414E-03  3196   0.133E-01    0.555E-01
RMM:   4    -0.382713977354E+03   -0.29342E-03   -0.38265E-03  3155   0.784E-02    0.694E-01
RMM:   5    -0.382711263311E+03    0.27140E-02   -0.15921E-03  3154   0.512E-02    0.422E-01
RMM:   6    -0.382710649198E+03    0.61411E-03   -0.11176E-03  3156   0.429E-02    0.297E-01
RMM:   7    -0.382710740815E+03   -0.91617E-04   -0.13315E-03  3151   0.461E-02    0.313E-01
RMM:   8    -0.382710280810E+03    0.46001E-03   -0.58255E-04  3156   0.309E-02    0.177E-01
RMM:   9    -0.382710122869E+03    0.15794E-03   -0.17411E-04  3148   0.170E-02    0.963E-02
RMM:  10    -0.382710061468E+03    0.61401E-04   -0.52432E-05  3149   0.947E-03    0.583E-02
RMM:  11    -0.382710037923E+03    0.23545E-04   -0.24670E-05  3131   0.590E-03    0.321E-02
RMM:  12    -0.382710031147E+03    0.67766E-05   -0.16570E-05  3140   0.514E-03    0.245E-02
RMM:  13    -0.382710029650E+03    0.14963E-05   -0.63256E-06  2895   0.323E-03    0.191E-02
RMM:  14    -0.382710028308E+03    0.13418E-05   -0.24718E-06  1794   0.216E-03    0.112E-02
RMM:  15    -0.382710027410E+03    0.89827E-06   -0.13167E-06  1665   0.175E-03
  12 F= -.41774265E+03 E0= -.41741899E+03  d E =-.546587E-02
       N       E                     dE             d eps       ncg     rms          rms(c)
DAV:   1    -0.382698801911E+03    0.11226E-01   -0.10314E+00  3164   0.140E+00    0.164E-01
RMM:   2    -0.382701240293E+03   -0.24384E-02   -0.16143E-02  3156   0.214E-01    0.342E-01
RMM:   3    -0.382700976288E+03    0.26401E-03   -0.12319E-03  3203   0.474E-02    0.284E-01
RMM:   4    -0.382700409549E+03    0.56674E-03   -0.46636E-04  3152   0.275E-02    0.181E-01
RMM:   5    -0.382700210891E+03    0.19866E-03   -0.15587E-04  3153   0.166E-02    0.103E-01
RMM:   6    -0.382700240653E+03   -0.29762E-04   -0.16528E-04  3156   0.162E-02    0.127E-01
RMM:   7    -0.382700198718E+03    0.41935E-04   -0.13899E-04  3149   0.151E-02    0.902E-02
RMM:   8    -0.382700166114E+03    0.32604E-04   -0.49739E-05  3144   0.907E-03    0.589E-02
RMM:   9    -0.382700149763E+03    0.16351E-04   -0.15120E-05  3136   0.501E-03    0.335E-02
RMM:  10    -0.382700142257E+03    0.75060E-05   -0.52594E-06  2626   0.305E-03    0.189E-02
RMM:  11    -0.382700139528E+03    0.27288E-05   -0.25607E-06  1834   0.207E-03    0.904E-03
RMM:  12    -0.382700138938E+03    0.59047E-06   -0.19404E-06  1690   0.203E-03
  13 F= -.41774456E+03 E0= -.41742074E+03  d E =-.191716E-02
       N       E                     dE             d eps       ncg     rms          rms(c)
DAV:   1    -0.382670761840E+03    0.29378E-01   -0.50556E+00  3136   0.312E+00    0.369E-01
RMM:   2    -0.382683662947E+03   -0.12901E-01   -0.80659E-02  3156   0.477E-01    0.819E-01
RMM:   3    -0.382680963786E+03    0.26992E-02   -0.60525E-03  3201   0.105E-01    0.578E-01
RMM:   4    -0.382678767629E+03    0.21962E-02   -0.22847E-03  3152   0.613E-02    0.412E-01
RMM:   5    -0.382677832979E+03    0.93465E-03   -0.84806E-04  3153   0.384E-02    0.255E-01
RMM:   6    -0.382677798846E+03    0.34133E-04   -0.76593E-04  3154   0.351E-02    0.253E-01
RMM:   7    -0.382677663742E+03    0.13510E-03   -0.69402E-04  3150   0.337E-02    0.205E-01
RMM:   8    -0.382677498646E+03    0.16510E-03   -0.25521E-04  3148   0.205E-02    0.136E-01
RMM:   9    -0.382677408928E+03    0.89718E-04   -0.77380E-05  3149   0.114E-02    0.725E-02
RMM:  10    -0.382677373670E+03    0.35258E-04   -0.26039E-05  3140   0.670E-03    0.428E-02
RMM:  11    -0.382677359726E+03    0.13944E-04   -0.13913E-05  3127   0.441E-03    0.211E-02
RMM:  12    -0.382677356741E+03    0.29844E-05   -0.87887E-06  3115   0.378E-03    0.170E-02
RMM:  13    -0.382677356411E+03    0.32960E-06   -0.31390E-06  1950   0.240E-03
  14 F= -.41774749E+03 E0= -.41742326E+03  d E =-.292256E-02
       N       E                     dE             d eps       ncg     rms          rms(c)
DAV:   1    -0.382666654114E+03    0.10703E-01   -0.93618E-01  3136   0.134E+00    0.156E-01
RMM:   2    -0.382668786779E+03   -0.21327E-02   -0.15063E-02  3156   0.205E-01    0.310E-01
RMM:   3    -0.382668641722E+03    0.14506E-03   -0.10994E-03  3211   0.449E-02    0.268E-01
RMM:   4    -0.382668274101E+03    0.36762E-03   -0.43862E-04  3152   0.265E-02    0.213E-01
RMM:   5    -0.382668030119E+03    0.24398E-03   -0.20489E-04  3155   0.183E-02    0.138E-01
RMM:   6    -0.382667967649E+03    0.62470E-04   -0.14097E-04  3153   0.151E-02    0.970E-02
RMM:   7    -0.382667972524E+03   -0.48748E-05   -0.13691E-04  3149   0.150E-02    0.991E-02
RMM:   8    -0.382667935966E+03    0.36558E-04   -0.63394E-05  3147   0.102E-02    0.589E-02
RMM:   9    -0.382667915854E+03    0.20112E-04   -0.19162E-05  3139   0.573E-03    0.286E-02
RMM:  10    -0.382667910411E+03    0.54434E-05   -0.45142E-06  2381   0.278E-03    0.175E-02
RMM:  11    -0.382667908022E+03    0.23886E-05   -0.25513E-06  1789   0.222E-03    0.109E-02
RMM:  12    -0.382667907331E+03    0.69117E-06   -0.17850E-06  1686   0.192E-03
  15 F= -.41774831E+03 E0= -.41742392E+03  d E =-.819242E-03
       N       E                     dE             d eps       ncg     rms          rms(c)
DAV:   1    -0.382659631189E+03    0.82768E-02   -0.68110E-01  3136   0.115E+00    0.132E-01
RMM:   2    -0.382661025968E+03   -0.13948E-02   -0.11128E-02  3155   0.176E-01    0.229E-01
RMM:   3    -0.382661212272E+03   -0.18630E-03   -0.80147E-04  3209   0.383E-02    0.255E-01
RMM:   4    -0.382660969048E+03    0.24322E-03   -0.35149E-04  3154   0.229E-02    0.224E-01
RMM:   5    -0.382660653571E+03    0.31548E-03   -0.17816E-04  3152   0.168E-02    0.117E-01
RMM:   6    -0.382660611125E+03    0.42445E-04   -0.11605E-04  3150   0.137E-02    0.867E-02
RMM:   7    -0.382660611931E+03   -0.80537E-06   -0.97295E-05  3148   0.126E-02    0.841E-02
RMM:   8    -0.382660584223E+03    0.27708E-04   -0.52458E-05  3144   0.934E-03    0.466E-02
RMM:   9    -0.382660570979E+03    0.13244E-04   -0.13426E-05  3132   0.483E-03    0.242E-02
RMM:  10    -0.382660567333E+03    0.36453E-05   -0.30717E-06  1984   0.232E-03    0.146E-02
RMM:  11    -0.382660565158E+03    0.21757E-05   -0.23910E-06  1704   0.222E-03    0.775E-03
RMM:  12    -0.382660564877E+03    0.28043E-06   -0.14102E-06  1663   0.172E-03
  16 F= -.41774878E+03 E0= -.41742424E+03  d E =-.477221E-03
       N       E                     dE             d eps       ncg     rms          rms(c)
DAV:   1    -0.382658158580E+03    0.24066E-02   -0.13637E-01  3164   0.513E-01    0.555E-02
RMM:   2    -0.382658408573E+03   -0.24999E-03   -0.21826E-03  3156   0.781E-02    0.945E-02
RMM:   3    -0.382658389056E+03    0.19518E-04   -0.14257E-04  3223   0.167E-02    0.655E-02
RMM:   4    -0.382658578824E+03   -0.18977E-03   -0.76454E-05  3159   0.989E-03    0.161E-01
RMM:   5    -0.382658358015E+03    0.22081E-03   -0.45243E-05  3143   0.784E-03    0.520E-02
RMM:   6    -0.382658351774E+03    0.62412E-05   -0.22762E-05  3137   0.605E-03    0.381E-02
RMM:   7    -0.382658351842E+03   -0.67535E-07   -0.20596E-05  3143   0.579E-03    0.353E-02
RMM:   8    -0.382658347964E+03    0.38776E-05   -0.11672E-05  3115   0.439E-03    0.216E-02
RMM:   9    -0.382658345048E+03    0.29157E-05   -0.27319E-06  1874   0.230E-03    0.911E-03
RMM:  10    -0.382658344475E+03    0.57364E-06   -0.74026E-07  1647   0.127E-03
  17 F= -.41774902E+03 E0= -.41742441E+03  d E =-.237441E-03
       N       E                     dE             d eps       ncg     rms          rms(c)
DAV:   1    -0.382656546018E+03    0.17990E-02   -0.18526E-01  3136   0.592E-01    0.605E-02
RMM:   2    -0.382656917370E+03   -0.37135E-03   -0.28624E-03  3155   0.905E-02    0.134E-01
RMM:   3    -0.382656869314E+03    0.48056E-04   -0.20505E-04  3267   0.196E-02    0.917E-02
RMM:   4    -0.382656905137E+03   -0.35823E-04   -0.66421E-05  3167   0.964E-03    0.110E-01
RMM:   5    -0.382656814972E+03    0.90164E-04   -0.46979E-05  3146   0.838E-03    0.678E-02
RMM:   6    -0.382656798703E+03    0.16270E-04   -0.27278E-05  3139   0.663E-03    0.448E-02
RMM:   7    -0.382656798655E+03    0.47119E-07   -0.30482E-05  3146   0.704E-03    0.414E-02
RMM:   8    -0.382656791306E+03    0.73495E-05   -0.16960E-05  3124   0.527E-03    0.222E-02
RMM:   9    -0.382656788355E+03    0.29505E-05   -0.36658E-06  2139   0.261E-03    0.978E-03
RMM:  10    -0.382656787733E+03    0.62249E-06   -0.91547E-07  1631   0.141E-03
  18 F= -.41774928E+03 E0= -.41742460E+03  d E =-.262770E-03
       N       E                     dE             d eps       ncg     rms          rms(c)
DAV:   1    -0.382656440364E+03    0.34799E-03   -0.10651E-01  3136   0.446E-01    0.448E-02
RMM:   2    -0.382656706483E+03   -0.26612E-03   -0.16348E-03  3155   0.686E-02    0.132E-01
RMM:   3    -0.382656626424E+03    0.80059E-04   -0.12198E-04  3243   0.149E-02    0.750E-02
RMM:   4    -0.382656616363E+03    0.10062E-04   -0.32593E-05  3161   0.703E-03    0.639E-02
RMM:   5    -0.382656591919E+03    0.24443E-04   -0.23203E-05  3137   0.601E-03    0.536E-02
RMM:   6    -0.382656582108E+03    0.98114E-05   -0.14591E-05  3126   0.489E-03    0.344E-02
RMM:   7    -0.382656582748E+03   -0.64049E-06   -0.18468E-05  3141   0.547E-03    0.336E-02
RMM:   8    -0.382656577409E+03    0.53390E-05   -0.98005E-06  3101   0.399E-03    0.169E-02
RMM:   9    -0.382656575735E+03    0.16746E-05   -0.20777E-06  1752   0.201E-03    0.649E-03
RMM:  10    -0.382656575471E+03    0.26357E-06   -0.55542E-07  1626   0.111E-03
  19 F= -.41774944E+03 E0= -.41742472E+03  d E =-.161622E-03
       N       E                     dE             d eps       ncg     rms          rms(c)
DAV:   1    -0.382657409859E+03   -0.83412E-03   -0.14157E-02  3192   0.157E-01    0.156E-02
RMM:   2    -0.382657443120E+03   -0.33262E-04   -0.19127E-04  3148   0.243E-02    0.483E-02
RMM:   3    -0.382657431703E+03    0.11418E-04   -0.15547E-05  3186   0.540E-03    0.267E-02
RMM:   4    -0.382657429807E+03    0.18952E-05   -0.40283E-06  2207   0.261E-03    0.228E-02
RMM:   5    -0.382657426423E+03    0.33839E-05   -0.23784E-06  1815   0.215E-03    0.176E-02
RMM:   6    -0.382657425265E+03    0.11582E-05   -0.15243E-06  1658   0.187E-03    0.112E-02
RMM:   7    -0.382657425801E+03   -0.53525E-06   -0.28126E-06  1867   0.235E-03
  20 F= -.41774954E+03 E0= -.41742480E+03  d E =-.910764E-04
       N       E                     dE             d eps       ncg     rms          rms(c)
DAV:   1    -0.382659020827E+03   -0.15956E-02   -0.59388E-02  3136   0.321E-01    0.320E-02
RMM:   2    -0.382659131745E+03   -0.11092E-03   -0.78207E-04  3150   0.494E-02    0.825E-02
RMM:   3    -0.382659109920E+03    0.21825E-04   -0.62592E-05  3228   0.110E-02    0.482E-02
RMM:   4    -0.382659128053E+03   -0.18133E-04   -0.21241E-05  3128   0.537E-03    0.685E-02
RMM:   5    -0.382659090851E+03    0.37202E-04   -0.11557E-05  3106   0.414E-03    0.337E-02
RMM:   6    -0.382659086210E+03    0.46412E-05   -0.64872E-06  2912   0.333E-03    0.207E-02
RMM:   7    -0.382659087632E+03   -0.14224E-05   -0.13225E-05  3122   0.466E-03    0.236E-02
RMM:   8    -0.382659083943E+03    0.36894E-05   -0.38330E-06  2217   0.261E-03    0.122E-02
RMM:   9    -0.382659083209E+03    0.73400E-06   -0.78806E-07  1641   0.134E-03
  21 F= -.41774969E+03 E0= -.41742497E+03  d E =-.158443E-03
