       N       E                     dE             d eps       ncg     rms          rms(c)
DAV:   1     0.476675622912E+03    0.47668E+03   -0.30749E+04  9648   0.114E+03
DAV:   2    -0.217682551577E+02   -0.49844E+03   -0.47826E+03 12912   0.255E+02
DAV:   3    -0.483550382952E+02   -0.26587E+02   -0.25467E+02 11964   0.564E+01
DAV:   4    -0.490851526160E+02   -0.73011E+00   -0.72085E+00 12108   0.100E+01
DAV:   5    -0.491118854738E+02   -0.26733E-01   -0.26651E-01 13488   0.162E+00    0.278E+01
RMM:   6    -0.472357845180E+02    0.18761E+01   -0.82166E+00  9662   0.132E+01    0.196E+01
RMM:   7    -0.581063348730E+02   -0.10871E+02   -0.19833E+01  9706   0.143E+01    0.271E+01
RMM:   8    -0.504965522252E+02    0.76098E+01   -0.71673E+00  9639   0.926E+00    0.165E+01
RMM:   9    -0.510010116513E+02   -0.50446E+00   -0.36413E+00  9640   0.578E+00    0.170E+01
RMM:  10    -0.486741730193E+02    0.23268E+01   -0.43336E+00  9639   0.667E+00    0.132E+01
RMM:  11    -0.465223630267E+02    0.21518E+01   -0.50020E-01  9602   0.270E+00    0.609E+00
RMM:  12    -0.462682538739E+02    0.25411E+00   -0.48051E-01  9680   0.228E+00    0.444E+00
RMM:  13    -0.461571265154E+02    0.11113E+00   -0.14998E-01  9665   0.130E+00    0.293E+00
RMM:  14    -0.461478777101E+02    0.92488E-02   -0.77153E-03 10530   0.210E-01    0.278E+00
RMM:  15    -0.460896117574E+02    0.58266E-01   -0.17969E-02  9670   0.493E-01    0.114E+00
RMM:  16    -0.460814887436E+02    0.81230E-02   -0.74745E-03  9745   0.281E-01    0.638E-01
RMM:  17    -0.460803297709E+02    0.11590E-02   -0.12910E-03 10136   0.107E-01    0.510E-01
RMM:  18    -0.460791329295E+02    0.11968E-02   -0.51352E-04  9802   0.789E-02    0.389E-01
RMM:  19    -0.460786065732E+02    0.52636E-03   -0.44442E-04  9705   0.763E-02    0.341E-01
RMM:  20    -0.460783607499E+02    0.24582E-03   -0.19821E-04  9743   0.479E-02    0.325E-01
RMM:  21    -0.460775150495E+02    0.84570E-03   -0.23773E-04  9711   0.496E-02    0.137E-01
RMM:  22    -0.460773707483E+02    0.14430E-03   -0.61365E-05 10066   0.226E-02    0.715E-02
RMM:  23    -0.460773817987E+02   -0.11050E-04   -0.68436E-05  9701   0.237E-02    0.774E-02
RMM:  24    -0.460773598657E+02    0.21933E-04   -0.23620E-05  9564   0.152E-02    0.591E-02
RMM:  25    -0.460773549303E+02    0.49353E-05   -0.49959E-06  7323   0.841E-03    0.361E-02
RMM:  26    -0.460773556725E+02   -0.74221E-06   -0.20257E-06  5602   0.509E-03
   1 F= -.46077356E+02 E0= -.46074553E+02  d E =-.460774E+02
       N       E                     dE             d eps       ncg     rms          rms(c)
DAV:   1    -0.460785856478E+02   -0.12307E-02   -0.75212E-02 10140   0.101E+00    0.512E-02
RMM:   2    -0.460807866649E+02   -0.22010E-02   -0.10513E-03  9694   0.151E-01    0.511E-01
RMM:   3    -0.460788444562E+02    0.19422E-02   -0.14295E-04  9707   0.414E-02    0.162E-01
RMM:   4    -0.460787539511E+02    0.90505E-04   -0.57402E-05  9701   0.267E-02    0.110E-01
RMM:   5    -0.460786938395E+02    0.60112E-04   -0.47365E-05  9630   0.230E-02    0.666E-02
RMM:   6    -0.460786709924E+02    0.22847E-04   -0.12938E-05  9428   0.123E-02    0.135E-02
RMM:   7    -0.460786717181E+02   -0.72568E-06   -0.22531E-06  5698   0.545E-03
   2 F= -.46078672E+02 E0= -.46075866E+02  d E =-.131605E-02
       N       E                     dE             d eps       ncg     rms          rms(c)
DAV:   1    -0.460802668611E+02   -0.15959E-02   -0.23040E+00  9600   0.559E+00    0.287E-01
RMM:   2    -0.461068047825E+02   -0.26538E-01   -0.26787E-02  9681   0.819E-01    0.173E+00
RMM:   3    -0.460875132901E+02    0.19291E-01   -0.19707E-03  9846   0.162E-01    0.813E-01
RMM:   4    -0.460856995788E+02    0.18137E-02   -0.15343E-03  9674   0.136E-01    0.670E-01
RMM:   5    -0.460832683701E+02    0.24312E-02   -0.15906E-03  9675   0.134E-01    0.352E-01
RMM:   6    -0.460826957995E+02    0.57257E-03   -0.63397E-04  9684   0.908E-02    0.170E-01
RMM:   7    -0.460823807779E+02    0.31502E-03   -0.22666E-04  9669   0.534E-02    0.367E-02
RMM:   8    -0.460823586902E+02    0.22088E-04   -0.84472E-05  9696   0.312E-02    0.169E-02
RMM:   9    -0.460823604366E+02   -0.17464E-05   -0.12245E-05  9753   0.119E-02    0.123E-02
RMM:  10    -0.460823602218E+02    0.21482E-06   -0.18680E-06  5425   0.559E-03
   3 F= -.46082360E+02 E0= -.46079545E+02  d E =-.368850E-02
       N       E                     dE             d eps       ncg     rms          rms(c)
DAV:   1    -0.460824699486E+02   -0.10951E-03   -0.85639E-03  9852   0.345E-01    0.132E-02
RMM:   2    -0.460824885875E+02   -0.18639E-04   -0.91742E-05  9653   0.501E-02    0.329E-02
RMM:   3    -0.460824853545E+02    0.32330E-05   -0.80268E-06  8605   0.109E-02    0.288E-02
RMM:   4    -0.460824801011E+02    0.52534E-05   -0.23731E-06  5349   0.662E-03    0.116E-02
RMM:   5    -0.460824793312E+02    0.76999E-06   -0.17332E-06  5149   0.570E-03
   4 F= -.46082479E+02 E0= -.46079671E+02  d E =-.119109E-03
       N       E                     dE             d eps       ncg     rms          rms(c)
DAV:   1    -0.460828012461E+02   -0.32114E-03   -0.28175E-01  9600   0.198E+00    0.736E-02
RMM:   2    -0.460831570262E+02   -0.35578E-03   -0.29886E-03  9641   0.289E-01    0.971E-02
RMM:   3    -0.460834537590E+02   -0.29673E-03   -0.25965E-04 10012   0.609E-02    0.208E-01
RMM:   4    -0.460830955014E+02    0.35826E-03   -0.71946E-05  9655   0.326E-02    0.442E-02
RMM:   5    -0.460830948442E+02    0.65713E-06   -0.69364E-05  9677   0.288E-02    0.569E-02
RMM:   6    -0.460830963532E+02   -0.15090E-05   -0.43592E-05  9667   0.242E-02    0.487E-02
RMM:   7    -0.460830746297E+02    0.21724E-04   -0.17715E-05  9600   0.158E-02    0.210E-02
RMM:   8    -0.460830734823E+02    0.11474E-05   -0.26492E-06  5682   0.625E-03    0.149E-02
RMM:   9    -0.460830710508E+02    0.24315E-05   -0.11165E-06  5001   0.442E-03    0.272E-03
RMM:  10    -0.460830710652E+02   -0.14474E-07   -0.33050E-07  4870   0.229E-03
   5 F= -.46083071E+02 E0= -.46080300E+02  d E =-.591734E-03
       N       E                     dE             d eps       ncg     rms          rms(c)
DAV:   1    -0.460832065520E+02   -0.13550E-03   -0.19567E-02  9600   0.514E-01    0.209E-02
RMM:   2    -0.460833215937E+02   -0.11504E-03   -0.24780E-04  9630   0.791E-02    0.103E-01
RMM:   3    -0.460832294239E+02    0.92170E-04   -0.22492E-05  9654   0.182E-02    0.147E-02
RMM:   4    -0.460832321687E+02   -0.27447E-05   -0.10040E-05  8976   0.108E-02    0.286E-02
RMM:   5    -0.460832268984E+02    0.52703E-05   -0.23677E-06  5356   0.647E-03    0.135E-02
RMM:   6    -0.460832308193E+02   -0.39209E-05   -0.43826E-06  7070   0.800E-03    0.207E-02
RMM:   7    -0.460832274490E+02    0.33703E-05   -0.21699E-06  5277   0.610E-03    0.893E-03
RMM:   8    -0.460832267474E+02    0.70153E-06   -0.47777E-07  5004   0.289E-03
   6 F= -.46083227E+02 E0= -.46080467E+02  d E =-.155682E-03
       N       E                     dE             d eps       ncg     rms          rms(c)
DAV:   1    -0.460740318767E+02    0.91956E-02   -0.11000E+01  9600   0.122E+01    0.507E-01
RMM:   2    -0.461651123193E+02   -0.91080E-01   -0.14937E-01  9631   0.190E+00    0.303E+00
RMM:   3    -0.460871593691E+02    0.77953E-01   -0.14545E-02  9752   0.456E-01    0.337E-01
RMM:   4    -0.460882061491E+02   -0.10468E-02   -0.57979E-03  9638   0.258E-01    0.675E-01
RMM:   5    -0.460854540994E+02    0.27520E-02   -0.13427E-03  9684   0.143E-01    0.374E-01
RMM:   6    -0.460874455161E+02   -0.19914E-02   -0.23625E-03  9667   0.175E-01    0.527E-01
RMM:   7    -0.460850199952E+02    0.24255E-02   -0.11348E-03  9673   0.122E-01    0.207E-01
RMM:   8    -0.460846293394E+02    0.39066E-03   -0.16767E-04  9977   0.401E-02    0.285E-02
RMM:   9    -0.460846273120E+02    0.20275E-05   -0.18268E-05 10287   0.131E-02    0.224E-02
RMM:  10    -0.460846247229E+02    0.25891E-05   -0.11646E-05  9600   0.125E-02    0.183E-02
RMM:  11    -0.460846223863E+02    0.23365E-05   -0.66734E-06  8941   0.952E-03    0.429E-03
RMM:  12    -0.460846226798E+02   -0.29347E-06   -0.10795E-06  5282   0.415E-03
   7 F= -.46084623E+02 E0= -.46082152E+02  d E =-.139593E-02
       N       E                     dE             d eps       ncg     rms          rms(c)
DAV:   1    -0.460843873723E+02    0.23501E-03   -0.33833E-01  9600   0.214E+00    0.856E-02
RMM:   2    -0.460862867575E+02   -0.18994E-02   -0.41875E-03  9630   0.325E-01    0.422E-01
RMM:   3    -0.460847623218E+02    0.15244E-02   -0.37176E-04  9793   0.744E-02    0.541E-02
RMM:   4    -0.460847867311E+02   -0.24409E-04   -0.14752E-04  9640   0.416E-02    0.103E-01
RMM:   5    -0.460847163037E+02    0.70427E-04   -0.38402E-05  9672   0.241E-02    0.501E-02
RMM:   6    -0.460847765414E+02   -0.60238E-04   -0.70169E-05  9664   0.301E-02    0.844E-02
RMM:   7    -0.460847156340E+02    0.60907E-04   -0.32391E-05  9669   0.206E-02    0.362E-02
RMM:   8    -0.460847031109E+02    0.12523E-04   -0.47830E-06  7063   0.759E-03    0.532E-03
RMM:   9    -0.460847029846E+02    0.12625E-06   -0.75981E-07  5125   0.348E-03
   8 F= -.46084703E+02 E0= -.46082183E+02  d E =-.803048E-04
