 vasp.5.4.4.18Apr17-6-g9f103f2a35 (build Nov 06 2023 00:46:14) complex          
  
 executed on             LinuxIFC date 2025.07.20  22:04:42
 running on   48 total cores
 distrk:  each k-point on   48 cores,    1 groups
 distr:  one band on NCORES_PER_BAND=   4 cores,   12 groups


--------------------------------------------------------------------------------------------------------


 INCAR:
 POTCAR:    PAW_PBE Pt 04Feb2005                  
 POTCAR:    PAW_PBE Pt 04Feb2005                  
  local pseudopotential read in
  partial core-charges read in
  partial kinetic energy density read in
  atomic valenz-charges read in
  non local Contribution for L=           2  read in
    real space projection operators read in
  non local Contribution for L=           2  read in
    real space projection operators read in
  non local Contribution for L=           0  read in
    real space projection operators read in
  non local Contribution for L=           0  read in
    real space projection operators read in
  non local Contribution for L=           1  read in
    real space projection operators read in
  non local Contribution for L=           1  read in
    real space projection operators read in
    PAW grid and wavefunctions read in
 
   number of l-projection  operators is LMAX  =           6
   number of lm-projection operators is LMMAX =          18
 
  PAW_PBE Pt 04Feb2005                  :
 energy of atom  1       EATOM= -729.1176
 kinetic energy error for atom=    0.0056 (will be added to EATOM!!)
 
 
 POSCAR: Pt                                      
  positions in cartesian coordinates
  No initial velocities read in
 exchange correlation table for  LEXCH =        8
   RHO(1)=    0.500       N(1)  =     2000
   RHO(2)=  100.500       N(2)  =     4000

 VTST: version 3.2, (02/03/18)

 CHAIN: initializing optimizer
 
 OPT: Using VASP QUASI-newton optimizer
 CHAIN: Read ICHAIN            0
 
 POSCAR: Pt                                      
  positions in cartesian coordinates
  No initial velocities read in
 


--------------------------------------------------------------------------------------------------------


 ion  position               nearest neighbor table
   1  0.000  0.000  0.000-   5 2.79   5 2.79   2 2.80   4 2.85   4 2.85   4 2.85   4 2.85
   2  0.667  0.000  0.091-   4 2.79   4 2.79   6 2.79   6 2.79   1 2.80   3 2.80   5 2.85   5 2.85
                             5 2.85   5 2.85
   3  0.333  0.000  0.181-   8 2.79   8 2.79   5 2.79   5 2.79   7 2.80   2 2.80   6 2.85   6 2.85
                             6 2.85   6 2.85
   4  0.500  0.500  0.000-   2 2.79   2 2.79   5 2.80   1 2.85   1 2.85   1 2.85   1 2.85
   5  0.167  0.500  0.091-   1 2.79   1 2.79   3 2.79   3 2.79   4 2.80   6 2.80   2 2.85   2 2.85
                             2 2.85   2 2.85
   6  0.833  0.500  0.181-   7 2.79   7 2.79   2 2.79   2 2.79   8 2.80   5 2.80   3 2.85   3 2.85
                             3 2.85   3 2.85
   7  0.000  0.000  0.272-   6 2.79   6 2.79   3 2.80   8 2.85   8 2.85   8 2.85   8 2.85
   8  0.500  0.500  0.272-   3 2.79   3 2.79   6 2.80   7 2.85   7 2.85   7 2.85   7 2.85
 

IMPORTANT INFORMATION: All symmetrisations will be switched off!
NOSYMM: (Re-)initialisation of all symmetry stuff for point group C_1.

 
 
 KPOINTS: K-Spacing Value to Generate K-Mesh: 0.02

Automatic generation of k-mesh.
Space group operators:
 irot       det(A)        alpha          n_x          n_y          n_z        tau_x        tau_y        tau_z
    1     1.000000     0.000000     1.000000     0.000000     0.000000     0.000000     0.000000     0.000000
 
 Subroutine IBZKPT returns following result:
 ===========================================
 
 Found    100 irreducible k-points:
 
 Following reciprocal coordinates:
            Coordinates               Weight
  0.000000  0.000000  0.000000      1.000000
  0.090909  0.000000  0.000000      2.000000
  0.181818  0.000000  0.000000      2.000000
  0.272727  0.000000  0.000000      2.000000
  0.363636  0.000000  0.000000      2.000000
  0.454545  0.000000  0.000000      2.000000
  0.000000  0.055556  0.000000      2.000000
  0.090909  0.055556  0.000000      2.000000
  0.181818  0.055556  0.000000      2.000000
  0.272727  0.055556  0.000000      2.000000
  0.363636  0.055556  0.000000      2.000000
  0.454545  0.055556  0.000000      2.000000
 -0.454545  0.055556  0.000000      2.000000
 -0.363636  0.055556  0.000000      2.000000
 -0.272727  0.055556  0.000000      2.000000
 -0.181818  0.055556  0.000000      2.000000
 -0.090909  0.055556  0.000000      2.000000
  0.000000  0.111111  0.000000      2.000000
  0.090909  0.111111  0.000000      2.000000
  0.181818  0.111111  0.000000      2.000000
  0.272727  0.111111  0.000000      2.000000
  0.363636  0.111111  0.000000      2.000000
  0.454545  0.111111  0.000000      2.000000
 -0.454545  0.111111  0.000000      2.000000
 -0.363636  0.111111  0.000000      2.000000
 -0.272727  0.111111  0.000000      2.000000
 -0.181818  0.111111  0.000000      2.000000
 -0.090909  0.111111  0.000000      2.000000
  0.000000  0.166667  0.000000      2.000000
  0.090909  0.166667  0.000000      2.000000
  0.181818  0.166667  0.000000      2.000000
  0.272727  0.166667  0.000000      2.000000
  0.363636  0.166667  0.000000      2.000000
  0.454545  0.166667  0.000000      2.000000
 -0.454545  0.166667  0.000000      2.000000
 -0.363636  0.166667  0.000000      2.000000
 -0.272727  0.166667  0.000000      2.000000
 -0.181818  0.166667  0.000000      2.000000
 -0.090909  0.166667  0.000000      2.000000
  0.000000  0.222222  0.000000      2.000000
  0.090909  0.222222  0.000000      2.000000
  0.181818  0.222222  0.000000      2.000000
  0.272727  0.222222  0.000000      2.000000
  0.363636  0.222222  0.000000      2.000000
  0.454545  0.222222  0.000000      2.000000
 -0.454545  0.222222  0.000000      2.000000
 -0.363636  0.222222  0.000000      2.000000
 -0.272727  0.222222  0.000000      2.000000
 -0.181818  0.222222  0.000000      2.000000
 -0.090909  0.222222  0.000000      2.000000
  0.000000  0.277778  0.000000      2.000000
  0.090909  0.277778  0.000000      2.000000
  0.181818  0.277778  0.000000      2.000000
  0.272727  0.277778  0.000000      2.000000
  0.363636  0.277778  0.000000      2.000000
  0.454545  0.277778  0.000000      2.000000
 -0.454545  0.277778  0.000000      2.000000
 -0.363636  0.277778  0.000000      2.000000
 -0.272727  0.277778  0.000000      2.000000
 -0.181818  0.277778  0.000000      2.000000
 -0.090909  0.277778  0.000000      2.000000
  0.000000  0.333333  0.000000      2.000000
  0.090909  0.333333  0.000000      2.000000
  0.181818  0.333333  0.000000      2.000000
  0.272727  0.333333  0.000000      2.000000
  0.363636  0.333333  0.000000      2.000000
  0.454545  0.333333  0.000000      2.000000
 -0.454545  0.333333  0.000000      2.000000
 -0.363636  0.333333  0.000000      2.000000
 -0.272727  0.333333  0.000000      2.000000
 -0.181818  0.333333  0.000000      2.000000
 -0.090909  0.333333  0.000000      2.000000
  0.000000  0.388889  0.000000      2.000000
  0.090909  0.388889  0.000000      2.000000
  0.181818  0.388889  0.000000      2.000000
  0.272727  0.388889  0.000000      2.000000
  0.363636  0.388889  0.000000      2.000000
  0.454545  0.388889  0.000000      2.000000
 -0.454545  0.388889  0.000000      2.000000
 -0.363636  0.388889  0.000000      2.000000
 -0.272727  0.388889  0.000000      2.000000
 -0.181818  0.388889  0.000000      2.000000
 -0.090909  0.388889  0.000000      2.000000
  0.000000  0.444444  0.000000      2.000000
  0.090909  0.444444  0.000000      2.000000
  0.181818  0.444444  0.000000      2.000000
  0.272727  0.444444  0.000000      2.000000
  0.363636  0.444444  0.000000      2.000000
  0.454545  0.444444  0.000000      2.000000
 -0.454545  0.444444  0.000000      2.000000
 -0.363636  0.444444  0.000000      2.000000
 -0.272727  0.444444  0.000000      2.000000
 -0.181818  0.444444  0.000000      2.000000
 -0.090909  0.444444  0.000000      2.000000
  0.000000  0.500000  0.000000      1.000000
  0.090909  0.500000  0.000000      2.000000
  0.181818  0.500000  0.000000      2.000000
  0.272727  0.500000  0.000000      2.000000
  0.363636  0.500000  0.000000      2.000000
  0.454545  0.500000  0.000000      2.000000
 
 Following cartesian coordinates:
            Coordinates               Weight
  0.000000  0.000000  0.000000      1.000000
  0.018343  0.000000  0.000000      2.000000
  0.036686  0.000000  0.000000      2.000000
  0.055029  0.000000  0.000000      2.000000
  0.073372  0.000000  0.000000      2.000000
  0.091715  0.000000  0.000000      2.000000
  0.000000  0.019804  0.000000      2.000000
  0.018343  0.019804  0.000000      2.000000
  0.036686  0.019804  0.000000      2.000000
  0.055029  0.019804  0.000000      2.000000
  0.073372  0.019804  0.000000      2.000000
  0.091715  0.019804  0.000000      2.000000
 -0.091715  0.019804  0.000000      2.000000
 -0.073372  0.019804  0.000000      2.000000
 -0.055029  0.019804  0.000000      2.000000
 -0.036686  0.019804  0.000000      2.000000
 -0.018343  0.019804  0.000000      2.000000
  0.000000  0.039608  0.000000      2.000000
  0.018343  0.039608  0.000000      2.000000
  0.036686  0.039608  0.000000      2.000000
  0.055029  0.039608  0.000000      2.000000
  0.073372  0.039608  0.000000      2.000000
  0.091715  0.039608  0.000000      2.000000
 -0.091715  0.039608  0.000000      2.000000
 -0.073372  0.039608  0.000000      2.000000
 -0.055029  0.039608  0.000000      2.000000
 -0.036686  0.039608  0.000000      2.000000
 -0.018343  0.039608  0.000000      2.000000
  0.000000  0.059412  0.000000      2.000000
  0.018343  0.059412  0.000000      2.000000
  0.036686  0.059412  0.000000      2.000000
  0.055029  0.059412  0.000000      2.000000
  0.073372  0.059412  0.000000      2.000000
  0.091715  0.059412  0.000000      2.000000
 -0.091715  0.059412  0.000000      2.000000
 -0.073372  0.059412  0.000000      2.000000
 -0.055029  0.059412  0.000000      2.000000
 -0.036686  0.059412  0.000000      2.000000
 -0.018343  0.059412  0.000000      2.000000
  0.000000  0.079216  0.000000      2.000000
  0.018343  0.079216  0.000000      2.000000
  0.036686  0.079216  0.000000      2.000000
  0.055029  0.079216  0.000000      2.000000
  0.073372  0.079216  0.000000      2.000000
  0.091715  0.079216  0.000000      2.000000
 -0.091715  0.079216  0.000000      2.000000
 -0.073372  0.079216  0.000000      2.000000
 -0.055029  0.079216  0.000000      2.000000
 -0.036686  0.079216  0.000000      2.000000
 -0.018343  0.079216  0.000000      2.000000
  0.000000  0.099019  0.000000      2.000000
  0.018343  0.099019  0.000000      2.000000
  0.036686  0.099019  0.000000      2.000000
  0.055029  0.099019  0.000000      2.000000
  0.073372  0.099019  0.000000      2.000000
  0.091715  0.099019  0.000000      2.000000
 -0.091715  0.099019  0.000000      2.000000
 -0.073372  0.099019  0.000000      2.000000
 -0.055029  0.099019  0.000000      2.000000
 -0.036686  0.099019  0.000000      2.000000
 -0.018343  0.099019  0.000000      2.000000
  0.000000  0.118823  0.000000      2.000000
  0.018343  0.118823  0.000000      2.000000
  0.036686  0.118823  0.000000      2.000000
  0.055029  0.118823  0.000000      2.000000
  0.073372  0.118823  0.000000      2.000000
  0.091715  0.118823  0.000000      2.000000
 -0.091715  0.118823  0.000000      2.000000
 -0.073372  0.118823  0.000000      2.000000
 -0.055029  0.118823  0.000000      2.000000
 -0.036686  0.118823  0.000000      2.000000
 -0.018343  0.118823  0.000000      2.000000
  0.000000  0.138627  0.000000      2.000000
  0.018343  0.138627  0.000000      2.000000
  0.036686  0.138627  0.000000      2.000000
  0.055029  0.138627  0.000000      2.000000
  0.073372  0.138627  0.000000      2.000000
  0.091715  0.138627  0.000000      2.000000
 -0.091715  0.138627  0.000000      2.000000
 -0.073372  0.138627  0.000000      2.000000
 -0.055029  0.138627  0.000000      2.000000
 -0.036686  0.138627  0.000000      2.000000
 -0.018343  0.138627  0.000000      2.000000
  0.000000  0.158431  0.000000      2.000000
  0.018343  0.158431  0.000000      2.000000
  0.036686  0.158431  0.000000      2.000000
  0.055029  0.158431  0.000000      2.000000
  0.073372  0.158431  0.000000      2.000000
  0.091715  0.158431  0.000000      2.000000
 -0.091715  0.158431  0.000000      2.000000
 -0.073372  0.158431  0.000000      2.000000
 -0.055029  0.158431  0.000000      2.000000
 -0.036686  0.158431  0.000000      2.000000
 -0.018343  0.158431  0.000000      2.000000
  0.000000  0.178235  0.000000      1.000000
  0.018343  0.178235  0.000000      2.000000
  0.036686  0.178235  0.000000      2.000000
  0.055029  0.178235  0.000000      2.000000
  0.073372  0.178235  0.000000      2.000000
  0.091715  0.178235  0.000000      2.000000
 


--------------------------------------------------------------------------------------------------------




 Dimension of arrays:
   k-points           NKPTS =    100   k-points in BZ     NKDIM =    100   number of bands    NBANDS=     48
   number of dos      NEDOS =    301   number of ions     NIONS =      8
   non local maximal  LDIM  =      6   non local SUM 2l+1 LMDIM =     18
   total plane-waves  NPLWV =  42336
   max r-space proj   IRMAX =      1   max aug-charges    IRDMAX=   7576
   dimension x,y,z NGX =    24 NGY =   14 NGZ =  126
   dimension x,y,z NGXF=    48 NGYF=   28 NGZF=  252
   support grid    NGXF=    48 NGYF=   28 NGZF=  252
   ions per type =               8
   NGX,Y,Z   is equivalent  to a cutoff of   8.05,  8.30,  8.38 a.u.
   NGXF,Y,Z  is equivalent  to a cutoff of  16.10, 16.59, 16.76 a.u.

 SYSTEM =  Pt111                                   
 POSCAR =  Pt                                      

 Startparameter for this run:
   NWRITE =      0    write-flag & timer
   PREC   = normal    normal or accurate (medium, high low for compatibility)
   ISTART =      0    job   : 0-new  1-cont  2-samecut
   ICHARG =      2    charge: 1-file 2-atom 10-const
   ISPIN  =      1    spin polarized calculation?
   LNONCOLLINEAR =      F non collinear calculations
   LSORBIT =      F    spin-orbit coupling
   INIWAV =      1    electr: 0-lowe 1-rand  2-diag
   LASPH  =      F    aspherical Exc in radial PAW
   METAGGA=      F    non-selfconsistent MetaGGA calc.

 Electronic Relaxation 1
   ENCUT  =  400.0 eV  29.40 Ry    5.42 a.u.   8.08  4.57 40.77*2*pi/ulx,y,z
   ENINI  =  400.0     initial cutoff
   ENAUG  =  359.0 eV  augmentation charge cutoff
   NELM   =     60;   NELMIN=  2; NELMDL= -5     # of ELM steps 
   EDIFF  = 0.1E-05   stopping-criterion for ELM
   LREAL  =      F    real-space projection
   NLSPLINE    = F    spline interpolate recip. space projectors
   LCOMPAT=      F    compatible to vasp.4.4
   GGA_COMPAT  = T    GGA compatible to vasp.4.4-vasp.4.6
   LMAXPAW     = -100 max onsite density
   LMAXMIX     =    2 max onsite mixed and CHGCAR
   VOSKOWN=      0    Vosko Wilk Nusair interpolation
   ROPT   =    0.00000
 Ionic relaxation
   EDIFFG = -.1E-01   stopping-criterion for IOM
   NSW    =     50    number of steps for IOM
   NBLOCK =      1;   KBLOCK =     50    inner block; outer block 
   IBRION =      1    ionic relax: 0-MD 1-quasi-New 2-CG
   NFREE  =      0    steps in history (QN), initial steepest desc. (CG)
   ISIF   =      2    stress and relaxation
   IWAVPR =     11    prediction:  0-non 1-charg 2-wave 3-comb
   ISYM   =      0    0-nonsym 1-usesym 2-fastsym
   LCORR  =      T    Harris-Foulkes like correction to forces

   POTIM  = 0.1000    time-step for ionic-motion
   TEIN   =    0.0    initial temperature
   TEBEG  =    0.0;   TEEND  =   0.0 temperature during run
   SMASS  =  -3.00    Nose mass-parameter (am)
   estimated Nose-frequenzy (Omega)   =  0.10E-29 period in steps =****** mass=  -0.561E-27a.u.
   SCALEE = 1.0000    scale energy and forces
   NPACO  =    256;   APACO  = 16.0  distance and # of slots for P.C.
   PSTRESS=    0.0 pullay stress

  Mass of Ions in am
   POMASS = 195.08
  Ionic Valenz
   ZVAL   =  10.00
  Atomic Wigner-Seitz radii
   RWIGS  =  -1.00
  virtual crystal weights 
   VCA    =   1.00
   NELECT =      80.0000    total number of electrons
   NUPDOWN=      -1.0000    fix difference up-down

 DOS related values:
   EMIN   =  10.00;   EMAX   =-10.00  energy-range for DOS
   EFERMI =   0.00
   ISMEAR =     1;   SIGMA  =   0.10  broadening in eV -4-tet -1-fermi 0-gaus

 Electronic relaxation 2 (details)
   IALGO  =     68    algorithm
   LDIAG  =      T    sub-space diagonalisation (order eigenvalues)
   LSUBROT=      F    optimize rotation matrix (better conditioning)
   TURBO    =      0    0=normal 1=particle mesh
   IRESTART =      0    0=no restart 2=restart with 2 vectors
   NREBOOT  =      0    no. of reboots
   NMIN     =      0    reboot dimension
   EREF     =   0.00    reference energy to select bands
   IMIX   =      4    mixing-type and parameters
     AMIX     =   0.40;   BMIX     =  1.00
     AMIX_MAG =   1.60;   BMIX_MAG =  1.00
     AMIN     =   0.10
     WC   =   100.;   INIMIX=   1;  MIXPRE=   1;  MAXMIX= -45

 Intra band minimization:
   WEIMIN = 0.0010     energy-eigenvalue tresh-hold
   EBREAK =  0.52E-08  absolut break condition
   DEPER  =   0.30     relativ break condition  

   TIME   =   0.40     timestep for ELM

  volume/ion in A,a.u.               =      43.45       293.20
  Fermi-wavevector in a.u.,A,eV,Ry     =   1.003275  1.895914 13.695085  1.006560
  Thomas-Fermi vector in A             =   2.135816
 
 Write flags
   LWAVE        =      F    write WAVECAR
   LDOWNSAMPLE  =      F    k-point downsampling of WAVECAR
   LCHARG       =      F    write CHGCAR
   LVTOT        =      F    write LOCPOT, total local potential
   LVHAR        =      F    write LOCPOT, Hartree potential only
   LELF         =      F    write electronic localiz. function (ELF)
   LORBIT       =      0    0 simple, 1 ext, 2 COOP (PROOUT), +10 PAW based schemes


 Dipole corrections
   LMONO  =      F    monopole corrections only (constant potential shift)
   LDIPOL =      T    correct potential (dipole corrections)
   IDIPOL =      3    1-x, 2-y, 3-z, 4-all directions 
   EPSILON=  1.0000000 bulk dielectric constant

 Exchange correlation treatment:
   GGA     =    --    GGA type
   LEXCH   =     8    internal setting for exchange type
   VOSKOWN=      0    Vosko Wilk Nusair interpolation
   LHFCALC =     F    Hartree Fock is set to
   LHFONE  =     F    Hartree Fock one center treatment
   AEXX    =    0.0000 exact exchange contribution

 Linear response parameters
   LEPSILON=     F    determine dielectric tensor
   LRPA    =     F    only Hartree local field effects (RPA)
   LNABLA  =     F    use nabla operator in PAW spheres
   LVEL    =     F    velocity operator in full k-point grid
   LINTERFAST=   F  fast interpolation
   KINTER  =     0    interpolate to denser k-point grid
   CSHIFT  =0.1000    complex shift for real part using Kramers Kronig
   OMEGAMAX=  -1.0    maximum frequency
   DEG_THRESHOLD= 0.2000000E-02 threshold for treating states as degnerate
   RTIME   =   -0.100 relaxation time in fs
  (WPLASMAI=    0.000 imaginary part of plasma frequency in eV, 0.658/RTIME)
   DFIELD  = 0.0000000 0.0000000 0.0000000 field for delta impulse in time
 
 Orbital magnetization related:
   ORBITALMAG=     F  switch on orbital magnetization
   LCHIMAG   =     F  perturbation theory with respect to B field
   DQ        =  0.001000  dq finite difference perturbation B field
   LLRAUG    =     F  two centre corrections for induced B field



--------------------------------------------------------------------------------------------------------


 quasi-Newton-method for relaxation of ions
   using selective dynamics as specified on POSCAR
   WARNING: If single coordinates had been selected the selection of coordinates
            is made according to the corresponding   d i r e c t   coordinates!
            Don't support selection of single cartesian coordinates -- sorry ...
  !
 charge density and potential will be updated during run
 non-spin polarized calculation
 RMM-DIIS sequential band-by-band and
  variant of blocked Davidson during initial phase
 perform sub-space diagonalisation
    before iterative eigenvector-optimisation
 modified Broyden-mixing scheme, WC =      100.0
 initial mixing is a Kerker type mixing with AMIX =  0.4000 and BMIX =      1.0000
 Hartree-type preconditioning will be used
 using additional bands            8
 reciprocal scheme for non local part
 use partial core corrections
 calculate Harris-corrections to forces 
   (improved forces if not selfconsistent)
 use gradient corrections 
 use of overlap-Matrix (Vanderbilt PP)
 Methfessel and Paxton  Order N= 1 SIGMA  =   0.10


--------------------------------------------------------------------------------------------------------


  energy-cutoff  :      400.00
  volume of cell :      347.58
      direct lattice vectors                 reciprocal lattice vectors
     4.956073930  0.000000000  0.000000000     0.201772616  0.000000000  0.000000000
     0.000000000  2.805284920  0.000000000     0.000000000  0.356470030  0.000000000
     0.000000000  0.000000000 25.000000000     0.000000000  0.000000000  0.040000000

  length of vectors
     4.956073930  2.805284920 25.000000000     0.201772616  0.356470030  0.040000000


 
 k-points in units of 2pi/SCALE and weight: K-Spacing Value to Generate K-Mesh: 0.02
   0.00000000  0.00000000  0.00000000       0.005
   0.01834297  0.00000000  0.00000000       0.010
   0.03668593  0.00000000  0.00000000       0.010
   0.05502890  0.00000000  0.00000000       0.010
   0.07337186  0.00000000  0.00000000       0.010
   0.09171483  0.00000000  0.00000000       0.010
   0.00000000  0.01980389  0.00000000       0.010
   0.01834297  0.01980389  0.00000000       0.010
   0.03668593  0.01980389  0.00000000       0.010
   0.05502890  0.01980389  0.00000000       0.010
   0.07337186  0.01980389  0.00000000       0.010
   0.09171483  0.01980389  0.00000000       0.010
  -0.09171483  0.01980389  0.00000000       0.010
  -0.07337186  0.01980389  0.00000000       0.010
  -0.05502890  0.01980389  0.00000000       0.010
  -0.03668593  0.01980389  0.00000000       0.010
  -0.01834297  0.01980389  0.00000000       0.010
   0.00000000  0.03960778  0.00000000       0.010
   0.01834297  0.03960778  0.00000000       0.010
   0.03668593  0.03960778  0.00000000       0.010
   0.05502890  0.03960778  0.00000000       0.010
   0.07337186  0.03960778  0.00000000       0.010
   0.09171483  0.03960778  0.00000000       0.010
  -0.09171483  0.03960778  0.00000000       0.010
  -0.07337186  0.03960778  0.00000000       0.010
  -0.05502890  0.03960778  0.00000000       0.010
  -0.03668593  0.03960778  0.00000000       0.010
  -0.01834297  0.03960778  0.00000000       0.010
   0.00000000  0.05941167  0.00000000       0.010
   0.01834297  0.05941167  0.00000000       0.010
   0.03668593  0.05941167  0.00000000       0.010
   0.05502890  0.05941167  0.00000000       0.010
   0.07337186  0.05941167  0.00000000       0.010
   0.09171483  0.05941167  0.00000000       0.010
  -0.09171483  0.05941167  0.00000000       0.010
  -0.07337186  0.05941167  0.00000000       0.010
  -0.05502890  0.05941167  0.00000000       0.010
  -0.03668593  0.05941167  0.00000000       0.010
  -0.01834297  0.05941167  0.00000000       0.010
   0.00000000  0.07921556  0.00000000       0.010
   0.01834297  0.07921556  0.00000000       0.010
   0.03668593  0.07921556  0.00000000       0.010
   0.05502890  0.07921556  0.00000000       0.010
   0.07337186  0.07921556  0.00000000       0.010
   0.09171483  0.07921556  0.00000000       0.010
  -0.09171483  0.07921556  0.00000000       0.010
  -0.07337186  0.07921556  0.00000000       0.010
  -0.05502890  0.07921556  0.00000000       0.010
  -0.03668593  0.07921556  0.00000000       0.010
  -0.01834297  0.07921556  0.00000000       0.010
   0.00000000  0.09901945  0.00000000       0.010
   0.01834297  0.09901945  0.00000000       0.010
   0.03668593  0.09901945  0.00000000       0.010
   0.05502890  0.09901945  0.00000000       0.010
   0.07337186  0.09901945  0.00000000       0.010
   0.09171483  0.09901945  0.00000000       0.010
  -0.09171483  0.09901945  0.00000000       0.010
  -0.07337186  0.09901945  0.00000000       0.010
  -0.05502890  0.09901945  0.00000000       0.010
  -0.03668593  0.09901945  0.00000000       0.010
  -0.01834297  0.09901945  0.00000000       0.010
   0.00000000  0.11882334  0.00000000       0.010
   0.01834297  0.11882334  0.00000000       0.010
   0.03668593  0.11882334  0.00000000       0.010
   0.05502890  0.11882334  0.00000000       0.010
   0.07337186  0.11882334  0.00000000       0.010
   0.09171483  0.11882334  0.00000000       0.010
  -0.09171483  0.11882334  0.00000000       0.010
  -0.07337186  0.11882334  0.00000000       0.010
  -0.05502890  0.11882334  0.00000000       0.010
  -0.03668593  0.11882334  0.00000000       0.010
  -0.01834297  0.11882334  0.00000000       0.010
   0.00000000  0.13862723  0.00000000       0.010
   0.01834297  0.13862723  0.00000000       0.010
   0.03668593  0.13862723  0.00000000       0.010
   0.05502890  0.13862723  0.00000000       0.010
   0.07337186  0.13862723  0.00000000       0.010
   0.09171483  0.13862723  0.00000000       0.010
  -0.09171483  0.13862723  0.00000000       0.010
  -0.07337186  0.13862723  0.00000000       0.010
  -0.05502890  0.13862723  0.00000000       0.010
  -0.03668593  0.13862723  0.00000000       0.010
  -0.01834297  0.13862723  0.00000000       0.010
   0.00000000  0.15843112  0.00000000       0.010
   0.01834297  0.15843112  0.00000000       0.010
   0.03668593  0.15843112  0.00000000       0.010
   0.05502890  0.15843112  0.00000000       0.010
   0.07337186  0.15843112  0.00000000       0.010
   0.09171483  0.15843112  0.00000000       0.010
  -0.09171483  0.15843112  0.00000000       0.010
  -0.07337186  0.15843112  0.00000000       0.010
  -0.05502890  0.15843112  0.00000000       0.010
  -0.03668593  0.15843112  0.00000000       0.010
  -0.01834297  0.15843112  0.00000000       0.010
   0.00000000  0.17823502  0.00000000       0.005
   0.01834297  0.17823502  0.00000000       0.010
   0.03668593  0.17823502  0.00000000       0.010
   0.05502890  0.17823502  0.00000000       0.010
   0.07337186  0.17823502  0.00000000       0.010
   0.09171483  0.17823502  0.00000000       0.010
 
 k-points in reciprocal lattice and weights: K-Spacing Value to Generate K-Mesh: 0.02
   0.00000000  0.00000000  0.00000000       0.005
   0.09090909  0.00000000  0.00000000       0.010
   0.18181818  0.00000000  0.00000000       0.010
   0.27272727  0.00000000  0.00000000       0.010
   0.36363636  0.00000000  0.00000000       0.010
   0.45454545  0.00000000  0.00000000       0.010
   0.00000000  0.05555556  0.00000000       0.010
   0.09090909  0.05555556  0.00000000       0.010
   0.18181818  0.05555556  0.00000000       0.010
   0.27272727  0.05555556  0.00000000       0.010
   0.36363636  0.05555556  0.00000000       0.010
   0.45454545  0.05555556  0.00000000       0.010
  -0.45454545  0.05555556  0.00000000       0.010
  -0.36363636  0.05555556  0.00000000       0.010
  -0.27272727  0.05555556  0.00000000       0.010
  -0.18181818  0.05555556  0.00000000       0.010
  -0.09090909  0.05555556  0.00000000       0.010
   0.00000000  0.11111111  0.00000000       0.010
   0.09090909  0.11111111  0.00000000       0.010
   0.18181818  0.11111111  0.00000000       0.010
   0.27272727  0.11111111  0.00000000       0.010
   0.36363636  0.11111111  0.00000000       0.010
   0.45454545  0.11111111  0.00000000       0.010
  -0.45454545  0.11111111  0.00000000       0.010
  -0.36363636  0.11111111  0.00000000       0.010
  -0.27272727  0.11111111  0.00000000       0.010
  -0.18181818  0.11111111  0.00000000       0.010
  -0.09090909  0.11111111  0.00000000       0.010
   0.00000000  0.16666667  0.00000000       0.010
   0.09090909  0.16666667  0.00000000       0.010
   0.18181818  0.16666667  0.00000000       0.010
   0.27272727  0.16666667  0.00000000       0.010
   0.36363636  0.16666667  0.00000000       0.010
   0.45454545  0.16666667  0.00000000       0.010
  -0.45454545  0.16666667  0.00000000       0.010
  -0.36363636  0.16666667  0.00000000       0.010
  -0.27272727  0.16666667  0.00000000       0.010
  -0.18181818  0.16666667  0.00000000       0.010
  -0.09090909  0.16666667  0.00000000       0.010
   0.00000000  0.22222222  0.00000000       0.010
   0.09090909  0.22222222  0.00000000       0.010
   0.18181818  0.22222222  0.00000000       0.010
   0.27272727  0.22222222  0.00000000       0.010
   0.36363636  0.22222222  0.00000000       0.010
   0.45454545  0.22222222  0.00000000       0.010
  -0.45454545  0.22222222  0.00000000       0.010
  -0.36363636  0.22222222  0.00000000       0.010
  -0.27272727  0.22222222  0.00000000       0.010
  -0.18181818  0.22222222  0.00000000       0.010
  -0.09090909  0.22222222  0.00000000       0.010
   0.00000000  0.27777778  0.00000000       0.010
   0.09090909  0.27777778  0.00000000       0.010
   0.18181818  0.27777778  0.00000000       0.010
   0.27272727  0.27777778  0.00000000       0.010
   0.36363636  0.27777778  0.00000000       0.010
   0.45454545  0.27777778  0.00000000       0.010
  -0.45454545  0.27777778  0.00000000       0.010
  -0.36363636  0.27777778  0.00000000       0.010
  -0.27272727  0.27777778  0.00000000       0.010
  -0.18181818  0.27777778  0.00000000       0.010
  -0.09090909  0.27777778  0.00000000       0.010
   0.00000000  0.33333333  0.00000000       0.010
   0.09090909  0.33333333  0.00000000       0.010
   0.18181818  0.33333333  0.00000000       0.010
   0.27272727  0.33333333  0.00000000       0.010
   0.36363636  0.33333333  0.00000000       0.010
   0.45454545  0.33333333  0.00000000       0.010
  -0.45454545  0.33333333  0.00000000       0.010
  -0.36363636  0.33333333  0.00000000       0.010
  -0.27272727  0.33333333  0.00000000       0.010
  -0.18181818  0.33333333  0.00000000       0.010
  -0.09090909  0.33333333  0.00000000       0.010
   0.00000000  0.38888889  0.00000000       0.010
   0.09090909  0.38888889  0.00000000       0.010
   0.18181818  0.38888889  0.00000000       0.010
   0.27272727  0.38888889  0.00000000       0.010
   0.36363636  0.38888889  0.00000000       0.010
   0.45454545  0.38888889  0.00000000       0.010
  -0.45454545  0.38888889  0.00000000       0.010
  -0.36363636  0.38888889  0.00000000       0.010
  -0.27272727  0.38888889  0.00000000       0.010
  -0.18181818  0.38888889  0.00000000       0.010
  -0.09090909  0.38888889  0.00000000       0.010
   0.00000000  0.44444444  0.00000000       0.010
   0.09090909  0.44444444  0.00000000       0.010
   0.18181818  0.44444444  0.00000000       0.010
   0.27272727  0.44444444  0.00000000       0.010
   0.36363636  0.44444444  0.00000000       0.010
   0.45454545  0.44444444  0.00000000       0.010
  -0.45454545  0.44444444  0.00000000       0.010
  -0.36363636  0.44444444  0.00000000       0.010
  -0.27272727  0.44444444  0.00000000       0.010
  -0.18181818  0.44444444  0.00000000       0.010
  -0.09090909  0.44444444  0.00000000       0.010
   0.00000000  0.50000000  0.00000000       0.005
   0.09090909  0.50000000  0.00000000       0.010
   0.18181818  0.50000000  0.00000000       0.010
   0.27272727  0.50000000  0.00000000       0.010
   0.36363636  0.50000000  0.00000000       0.010
   0.45454545  0.50000000  0.00000000       0.010
 
 position of ions in fractional coordinates (direct lattice) 
   0.00000000  0.00000000  0.00000000
   0.66666667  0.00000000  0.09050646
   0.33333333  0.00000000  0.18101292
   0.50000000  0.50000000  0.00000000
   0.16666667  0.50000000  0.09050646
   0.83333333  0.50000000  0.18101292
   0.00000000  0.00000000  0.27151939
   0.50000000  0.50000000  0.27151939
 
 position of ions in cartesian coordinates  (Angst):
   0.00000000  0.00000000  0.00000000
   3.30404930  0.00000000  2.26266152
   1.65202463  0.00000000  4.52532311
   2.47803697  1.40264246  0.00000000
   0.82601234  1.40264246  2.26266152
   4.13006159  1.40264246  4.52532311
   0.00000000  0.00000000  6.78798464
   2.47803697  1.40264246  6.78798464
 


--------------------------------------------------------------------------------------------------------


 k-point  1 :   0.0000 0.0000 0.0000  plane waves:    6329
 k-point  2 :   0.0909 0.0000 0.0000  plane waves:    6336
 k-point  3 :   0.1818 0.0000 0.0000  plane waves:    6334
 k-point  4 :   0.2727 0.0000 0.0000  plane waves:    6338
 k-point  5 :   0.3636 0.0000 0.0000  plane waves:    6350
 k-point  6 :   0.4545 0.0000 0.0000  plane waves:    6356
 k-point  7 :   0.0000 0.0556 0.0000  plane waves:    6337
 k-point  8 :   0.0909 0.0556 0.0000  plane waves:    6329
 k-point  9 :   0.1818 0.0556 0.0000  plane waves:    6334
 k-point 10 :   0.2727 0.0556 0.0000  plane waves:    6345
 k-point 11 :   0.3636 0.0556 0.0000  plane waves:    6362
 k-point 12 :   0.4545 0.0556 0.0000  plane waves:    6358
 k-point 13 :  -0.4545 0.0556 0.0000  plane waves:    6358
 k-point 14 :  -0.3636 0.0556 0.0000  plane waves:    6362
 k-point 15 :  -0.2727 0.0556 0.0000  plane waves:    6345
 k-point 16 :  -0.1818 0.0556 0.0000  plane waves:    6334
 k-point 17 :  -0.0909 0.0556 0.0000  plane waves:    6329
 k-point 18 :   0.0000 0.1111 0.0000  plane waves:    6343
 k-point 19 :   0.0909 0.1111 0.0000  plane waves:    6328
 k-point 20 :   0.1818 0.1111 0.0000  plane waves:    6346
 k-point 21 :   0.2727 0.1111 0.0000  plane waves:    6342
 k-point 22 :   0.3636 0.1111 0.0000  plane waves:    6337
 k-point 23 :   0.4545 0.1111 0.0000  plane waves:    6337
 k-point 24 :  -0.4545 0.1111 0.0000  plane waves:    6337
 k-point 25 :  -0.3636 0.1111 0.0000  plane waves:    6337
 k-point 26 :  -0.2727 0.1111 0.0000  plane waves:    6342
 k-point 27 :  -0.1818 0.1111 0.0000  plane waves:    6346
 k-point 28 :  -0.0909 0.1111 0.0000  plane waves:    6328
 k-point 29 :   0.0000 0.1667 0.0000  plane waves:    6341
 k-point 30 :   0.0909 0.1667 0.0000  plane waves:    6331
 k-point 31 :   0.1818 0.1667 0.0000  plane waves:    6347
 k-point 32 :   0.2727 0.1667 0.0000  plane waves:    6344
 k-point 33 :   0.3636 0.1667 0.0000  plane waves:    6340
 k-point 34 :   0.4545 0.1667 0.0000  plane waves:    6332
 k-point 35 :  -0.4545 0.1667 0.0000  plane waves:    6332
 k-point 36 :  -0.3636 0.1667 0.0000  plane waves:    6340
 k-point 37 :  -0.2727 0.1667 0.0000  plane waves:    6344
 k-point 38 :  -0.1818 0.1667 0.0000  plane waves:    6347
 k-point 39 :  -0.0909 0.1667 0.0000  plane waves:    6331
 k-point 40 :   0.0000 0.2222 0.0000  plane waves:    6325
 k-point 41 :   0.0909 0.2222 0.0000  plane waves:    6314
 k-point 42 :   0.1818 0.2222 0.0000  plane waves:    6325
 k-point 43 :   0.2727 0.2222 0.0000  plane waves:    6335
 k-point 44 :   0.3636 0.2222 0.0000  plane waves:    6343
 k-point 45 :   0.4545 0.2222 0.0000  plane waves:    6320
 k-point 46 :  -0.4545 0.2222 0.0000  plane waves:    6320
 k-point 47 :  -0.3636 0.2222 0.0000  plane waves:    6343
 k-point 48 :  -0.2727 0.2222 0.0000  plane waves:    6335
 k-point 49 :  -0.1818 0.2222 0.0000  plane waves:    6325
 k-point 50 :  -0.0909 0.2222 0.0000  plane waves:    6314
 k-point 51 :   0.0000 0.2778 0.0000  plane waves:    6283
 k-point 52 :   0.0909 0.2778 0.0000  plane waves:    6302
 k-point 53 :   0.1818 0.2778 0.0000  plane waves:    6305
 k-point 54 :   0.2727 0.2778 0.0000  plane waves:    6322
 k-point 55 :   0.3636 0.2778 0.0000  plane waves:    6332
 k-point 56 :   0.4545 0.2778 0.0000  plane waves:    6338
 k-point 57 :  -0.4545 0.2778 0.0000  plane waves:    6338
 k-point 58 :  -0.3636 0.2778 0.0000  plane waves:    6332
 k-point 59 :  -0.2727 0.2778 0.0000  plane waves:    6322
 k-point 60 :  -0.1818 0.2778 0.0000  plane waves:    6305
 k-point 61 :  -0.0909 0.2778 0.0000  plane waves:    6302
 k-point 62 :   0.0000 0.3333 0.0000  plane waves:    6267
 k-point 63 :   0.0909 0.3333 0.0000  plane waves:    6272
 k-point 64 :   0.1818 0.3333 0.0000  plane waves:    6299
 k-point 65 :   0.2727 0.3333 0.0000  plane waves:    6304
 k-point 66 :   0.3636 0.3333 0.0000  plane waves:    6316
 k-point 67 :   0.4545 0.3333 0.0000  plane waves:    6304
 k-point 68 :  -0.4545 0.3333 0.0000  plane waves:    6304
 k-point 69 :  -0.3636 0.3333 0.0000  plane waves:    6316
 k-point 70 :  -0.2727 0.3333 0.0000  plane waves:    6304
 k-point 71 :  -0.1818 0.3333 0.0000  plane waves:    6299
 k-point 72 :  -0.0909 0.3333 0.0000  plane waves:    6272
 k-point 73 :   0.0000 0.3889 0.0000  plane waves:    6263
 k-point 74 :   0.0909 0.3889 0.0000  plane waves:    6276
 k-point 75 :   0.1818 0.3889 0.0000  plane waves:    6281
 k-point 76 :   0.2727 0.3889 0.0000  plane waves:    6271
 k-point 77 :   0.3636 0.3889 0.0000  plane waves:    6293
 k-point 78 :   0.4545 0.3889 0.0000  plane waves:    6288
 k-point 79 :  -0.4545 0.3889 0.0000  plane waves:    6288
 k-point 80 :  -0.3636 0.3889 0.0000  plane waves:    6293
 k-point 81 :  -0.2727 0.3889 0.0000  plane waves:    6271
 k-point 82 :  -0.1818 0.3889 0.0000  plane waves:    6281
 k-point 83 :  -0.0909 0.3889 0.0000  plane waves:    6276
 k-point 84 :   0.0000 0.4444 0.0000  plane waves:    6260
 k-point 85 :   0.0909 0.4444 0.0000  plane waves:    6252
 k-point 86 :   0.1818 0.4444 0.0000  plane waves:    6267
 k-point 87 :   0.2727 0.4444 0.0000  plane waves:    6264
 k-point 88 :   0.3636 0.4444 0.0000  plane waves:    6279
 k-point 89 :   0.4545 0.4444 0.0000  plane waves:    6292
 k-point 90 :  -0.4545 0.4444 0.0000  plane waves:    6292
 k-point 91 :  -0.3636 0.4444 0.0000  plane waves:    6279
 k-point 92 :  -0.2727 0.4444 0.0000  plane waves:    6264
 k-point 93 :  -0.1818 0.4444 0.0000  plane waves:    6267
 k-point 94 :  -0.0909 0.4444 0.0000  plane waves:    6252
 k-point 95 :   0.0000 0.5000 0.0000  plane waves:    6274
 k-point 96 :   0.0909 0.5000 0.0000  plane waves:    6280
 k-point 97 :   0.1818 0.5000 0.0000  plane waves:    6260
 k-point 98 :   0.2727 0.5000 0.0000  plane waves:    6264
 k-point 99 :   0.3636 0.5000 0.0000  plane waves:    6268
 k-point ** :   0.4545 0.5000 0.0000  plane waves:    6290

 maximum and minimum number of plane-waves per node :      1608     1542

 maximum number of plane-waves:      6362
 maximum index in each direction: 
   IXMAX=    8   IYMAX=    4   IZMAX=   40
   IXMIN=   -8   IYMIN=   -5   IZMIN=  -40


 parallel 3D FFT for wavefunctions:
    minimum data exchange during FFTs selected (reduces bandwidth)
 parallel 3D FFT for charge:
    minimum data exchange during FFTs selected (reduces bandwidth)


 total amount of memory used by VASP MPI-rank0    65007. kBytes
=======================================================================

   base      :      30000. kBytes
   nonl-proj :      23186. kBytes
   fftplans  :        578. kBytes
   grid      :        768. kBytes
   one-center:         31. kBytes
   wavefun   :      10444. kBytes
 
     INWAV:  cpu time    0.0000: real time    0.0000
 Broyden mixing: mesh for mixing (old mesh)
   NGX = 17   NGY =  9   NGZ = 81
  (NGX  = 48   NGY  = 28   NGZ  =252)
  gives a total of  12393 points

 initial charge density was supplied:
 charge density of overlapping atoms calculated
 number of electron      80.0000000 magnetization 
 keeping initial charge density in first step


--------------------------------------------------------------------------------------------------------


 Maximum index for augmentation-charges          460 (set IRDMAX)


--------------------------------------------------------------------------------------------------------


 First call to EWALD:  gamma=   0.252
 Maximum number of real-space cells 4x 6x 1
 Maximum number of reciprocal cells 2x 1x 9

    FEWALD:  cpu time    0.0016: real time    0.0032


--------------------------------------- Iteration      1(   1)  ---------------------------------------


    POTLOK:  cpu time    0.0086: real time    0.0088
    SETDIJ:  cpu time    0.0028: real time    0.0028
     EDDAV:  cpu time    6.9154: real time    6.9181
       DOS:  cpu time    0.0021: real time    0.0020
    --------------------------------------------
      LOOP:  cpu time    6.9289: real time    6.9318

 eigenvalue-minimisations  :  9648
 total energy-change (2. order) : 0.4766756E+03  (-0.3074930E+04)
 number of electron      80.0000000 magnetization 
 augmentation part       80.0000000 magnetization 

 DIPCOR: dipole corrections for dipol
 direction  3 min pos   164,
 dipolmoment           0.000000      0.000000      0.000015 electrons x Angstroem
 Tr[quadrupol]      -264.230122

 energy correction for charged system         0.000000 eV
 dipol+quadrupol energy correction           -0.000000 eV
 added-field ion interaction          0.000174 eV  (added to PSCEN)


 Free energy of the ion-electron system (eV)
  ---------------------------------------------------
  alpha Z        PSCENC =       175.03122631
  Ewald energy   TEWEN  =     29938.12170363
  -Hartree energ DENC   =    -36066.82205517
  -exchange      EXHF   =         0.00000000
  -V(xc)+E(xc)   XCENC  =        26.53664218
  PAW double counting   =      5568.98828343    -5342.72235985
  entropy T*S    EENTRO =        -0.00088903
  eigenvalues    EBANDS =       344.64745695
  atomic energy  EATOM  =      5832.89561447
  Solvation  Ediel_sol  =         0.00000000
  ---------------------------------------------------
  free energy    TOTEN  =       476.67562291 eV

  energy without entropy =      476.67651195  energy(sigma->0) =      476.67591926


--------------------------------------------------------------------------------------------------------




--------------------------------------- Iteration      1(   2)  ---------------------------------------


     EDDAV:  cpu time    9.3874: real time    9.3931
       DOS:  cpu time    0.0022: real time    0.0022
    --------------------------------------------
      LOOP:  cpu time    9.3896: real time    9.3953

 eigenvalue-minimisations  : 12912
 total energy-change (2. order) :-0.4984439E+03  (-0.4782593E+03)
 number of electron      80.0000000 magnetization 
 augmentation part       80.0000000 magnetization 

 DIPCOR: dipole corrections for dipol
 direction  3 min pos   164,
 dipolmoment           0.000000      0.000000      0.000015 electrons x Angstroem
 Tr[quadrupol]      -264.230122

 energy correction for charged system         0.000000 eV
 dipol+quadrupol energy correction           -0.000000 eV
 added-field ion interaction          0.000174 eV  (added to PSCEN)


 Free energy of the ion-electron system (eV)
  ---------------------------------------------------
  alpha Z        PSCENC =       175.03122631
  Ewald energy   TEWEN  =     29938.12170363
  -Hartree energ DENC   =    -36066.82205517
  -exchange      EXHF   =         0.00000000
  -V(xc)+E(xc)   XCENC  =        26.53664218
  PAW double counting   =      5568.98828343    -5342.72235985
  entropy T*S    EENTRO =         0.00065028
  eigenvalues    EBANDS =      -153.79796043
  atomic energy  EATOM  =      5832.89561447
  Solvation  Ediel_sol  =         0.00000000
  ---------------------------------------------------
  free energy    TOTEN  =       -21.76825516 eV

  energy without entropy =      -21.76890544  energy(sigma->0) =      -21.76847192


--------------------------------------------------------------------------------------------------------




--------------------------------------- Iteration      1(   3)  ---------------------------------------


     EDDAV:  cpu time    8.6377: real time    8.6401
       DOS:  cpu time    0.0023: real time    0.0025
    --------------------------------------------
      LOOP:  cpu time    8.6400: real time    8.6426

 eigenvalue-minimisations  : 11964
 total energy-change (2. order) :-0.2658678E+02  (-0.2546742E+02)
 number of electron      80.0000000 magnetization 
 augmentation part       80.0000000 magnetization 

 DIPCOR: dipole corrections for dipol
 direction  3 min pos   164,
 dipolmoment           0.000000      0.000000      0.000015 electrons x Angstroem
 Tr[quadrupol]      -264.230122

 energy correction for charged system         0.000000 eV
 dipol+quadrupol energy correction           -0.000000 eV
 added-field ion interaction          0.000174 eV  (added to PSCEN)


 Free energy of the ion-electron system (eV)
  ---------------------------------------------------
  alpha Z        PSCENC =       175.03122631
  Ewald energy   TEWEN  =     29938.12170363
  -Hartree energ DENC   =    -36066.82205517
  -exchange      EXHF   =         0.00000000
  -V(xc)+E(xc)   XCENC  =        26.53664218
  PAW double counting   =      5568.98828343    -5342.72235985
  entropy T*S    EENTRO =        -0.00934395
  eigenvalues    EBANDS =      -180.37474934
  atomic energy  EATOM  =      5832.89561447
  Solvation  Ediel_sol  =         0.00000000
  ---------------------------------------------------
  free energy    TOTEN  =       -48.35503830 eV

  energy without entropy =      -48.34569434  energy(sigma->0) =      -48.35192364


--------------------------------------------------------------------------------------------------------




--------------------------------------- Iteration      1(   4)  ---------------------------------------


     EDDAV:  cpu time    8.7056: real time    8.7089
       DOS:  cpu time    0.0023: real time    0.0023
    --------------------------------------------
      LOOP:  cpu time    8.7079: real time    8.7112

 eigenvalue-minimisations  : 12108
 total energy-change (2. order) :-0.7301143E+00  (-0.7208510E+00)
 number of electron      80.0000000 magnetization 
 augmentation part       80.0000000 magnetization 

 DIPCOR: dipole corrections for dipol
 direction  3 min pos   164,
 dipolmoment           0.000000      0.000000      0.000015 electrons x Angstroem
 Tr[quadrupol]      -264.230122

 energy correction for charged system         0.000000 eV
 dipol+quadrupol energy correction           -0.000000 eV
 added-field ion interaction          0.000174 eV  (added to PSCEN)


 Free energy of the ion-electron system (eV)
  ---------------------------------------------------
  alpha Z        PSCENC =       175.03122631
  Ewald energy   TEWEN  =     29938.12170363
  -Hartree energ DENC   =    -36066.82205517
  -exchange      EXHF   =         0.00000000
  -V(xc)+E(xc)   XCENC  =        26.53664218
  PAW double counting   =      5568.98828343    -5342.72235985
  entropy T*S    EENTRO =        -0.00957260
  eigenvalues    EBANDS =      -181.10463500
  atomic energy  EATOM  =      5832.89561447
  Solvation  Ediel_sol  =         0.00000000
  ---------------------------------------------------
  free energy    TOTEN  =       -49.08515262 eV

  energy without entropy =      -49.07558001  energy(sigma->0) =      -49.08196175


--------------------------------------------------------------------------------------------------------




--------------------------------------- Iteration      1(   5)  ---------------------------------------


     EDDAV:  cpu time    9.7880: real time    9.7926
       DOS:  cpu time    0.0024: real time    0.0024
    CHARGE:  cpu time    0.0715: real time    0.0715
    MIXING:  cpu time    0.0010: real time    0.0012
    --------------------------------------------
      LOOP:  cpu time    9.8629: real time    9.8677

 eigenvalue-minimisations  : 13488
 total energy-change (2. order) :-0.2673286E-01  (-0.2665122E-01)
 number of electron      79.9999920 magnetization 
 augmentation part       23.3281050 magnetization 

 DIPCOR: dipole corrections for dipol
 direction  3 min pos   164,
 dipolmoment           0.000000      0.000000      0.000015 electrons x Angstroem
 Tr[quadrupol]      -264.230122

 energy correction for charged system         0.000000 eV
 dipol+quadrupol energy correction           -0.000000 eV
 added-field ion interaction          0.000174 eV  (added to PSCEN)


 Broyden mixing:
  rms(total) = 0.27812E+01    rms(broyden)= 0.27812E+01
  rms(prec ) = 0.28144E+01
  weight for this iteration     100.00

 Free energy of the ion-electron system (eV)
  ---------------------------------------------------
  alpha Z        PSCENC =       175.03122631
  Ewald energy   TEWEN  =     29938.12170363
  -Hartree energ DENC   =    -36066.82205517
  -exchange      EXHF   =         0.00000000
  -V(xc)+E(xc)   XCENC  =        26.53664218
  PAW double counting   =      5568.98828343    -5342.72235985
  entropy T*S    EENTRO =        -0.00947843
  eigenvalues    EBANDS =      -181.13146204
  atomic energy  EATOM  =      5832.89561447
  Solvation  Ediel_sol  =         0.00000000
  ---------------------------------------------------
  free energy    TOTEN  =       -49.11188547 eV

  energy without entropy =      -49.10240705  energy(sigma->0) =      -49.10872600


--------------------------------------------------------------------------------------------------------




--------------------------------------- Iteration      1(   6)  ---------------------------------------


    POTLOK:  cpu time    0.0055: real time    0.0064
    SETDIJ:  cpu time    0.0021: real time    0.0021
    EDDIAG:  cpu time    0.7967: real time    0.7971
  RMM-DIIS:  cpu time    1.7480: real time    1.7484
    ORTHCH:  cpu time    0.1873: real time    0.1873
       DOS:  cpu time    0.0022: real time    0.0022
    CHARGE:  cpu time    0.0796: real time    0.0796
    MIXING:  cpu time    0.0007: real time    0.0007
    --------------------------------------------
      LOOP:  cpu time    2.8221: real time    2.8238

 eigenvalue-minimisations  :  9662
 total energy-change (2. order) : 0.1876101E+01  (-0.8216622E+00)
 number of electron      79.9999914 magnetization 
 augmentation part       24.6082076 magnetization 

 DIPCOR: dipole corrections for dipol
 direction  3 min pos   174,
 dipolmoment           0.000000      0.000000      0.016913 electrons x Angstroem
 Tr[quadrupol]      -263.202368

 energy correction for charged system         0.000000 eV
 dipol+quadrupol energy correction           -0.000074 eV
 added-field ion interaction          0.893676 eV  (added to PSCEN)


 Broyden mixing:
  rms(total) = 0.19588E+01    rms(broyden)= 0.19588E+01
  rms(prec ) = 0.20486E+01
  weight for this iteration     100.00

 eigenvalues of (default mixing * dielectric matrix)
  average eigenvalue GAMMA=   1.3711
  1.3711

 Free energy of the ion-electron system (eV)
  ---------------------------------------------------
  alpha Z        PSCENC =       175.92465366
  Ewald energy   TEWEN  =     29938.12170363
  -Hartree energ DENC   =    -35975.53662187
  -exchange      EXHF   =         0.00000000
  -V(xc)+E(xc)   XCENC  =        24.41083950
  PAW double counting   =      6095.21013795    -5880.22047475
  entropy T*S    EENTRO =        -0.00455803
  eigenvalues    EBANDS =      -258.03707907
  atomic energy  EATOM  =      5832.89561447
  Solvation  Ediel_sol  =         0.00000000
  ---------------------------------------------------
  free energy    TOTEN  =       -47.23578452 eV

  energy without entropy =      -47.23122649  energy(sigma->0) =      -47.23426517


--------------------------------------------------------------------------------------------------------




--------------------------------------- Iteration      1(   7)  ---------------------------------------


    POTLOK:  cpu time    0.0044: real time    0.0044
    SETDIJ:  cpu time    0.0020: real time    0.0020
    EDDIAG:  cpu time    0.7940: real time    0.7942
  RMM-DIIS:  cpu time    1.7263: real time    1.7265
    ORTHCH:  cpu time    0.1885: real time    0.1886
       DOS:  cpu time    0.0023: real time    0.0023
    CHARGE:  cpu time    0.0677: real time    0.0677
    MIXING:  cpu time    0.0004: real time    0.0004
    --------------------------------------------
      LOOP:  cpu time    2.7855: real time    2.7860

 eigenvalue-minimisations  :  9706
 total energy-change (2. order) :-0.1087055E+02  (-0.1983253E+01)
 number of electron      79.9999914 magnetization 
 augmentation part       24.2609771 magnetization 

 DIPCOR: dipole corrections for dipol
 direction  3 min pos   169,
 dipolmoment           0.000000      0.000000     -0.158177 electrons x Angstroem
 Tr[quadrupol]      -265.688457

 energy correction for charged system         0.000000 eV
 dipol+quadrupol energy correction           -0.006513 eV
 added-field ion interaction         -5.090277 eV  (added to PSCEN)


 Broyden mixing:
  rms(total) = 0.27084E+01    rms(broyden)= 0.27083E+01
  rms(prec ) = 0.32075E+01
  weight for this iteration     100.00

 eigenvalues of (default mixing * dielectric matrix)
  average eigenvalue GAMMA=   1.1865
  2.1062  0.2669

 Free energy of the ion-electron system (eV)
  ---------------------------------------------------
  alpha Z        PSCENC =       169.93426279
  Ewald energy   TEWEN  =     29938.12170363
  -Hartree energ DENC   =    -36043.66738327
  -exchange      EXHF   =         0.00000000
  -V(xc)+E(xc)   XCENC  =        23.72631763
  PAW double counting   =      6505.06439670    -6295.00845069
  entropy T*S    EENTRO =        -0.00136233
  eigenvalues    EBANDS =      -189.17143380
  atomic energy  EATOM  =      5832.89561447
  Solvation  Ediel_sol  =         0.00000000
  ---------------------------------------------------
  free energy    TOTEN  =       -58.10633487 eV

  energy without entropy =      -58.10497254  energy(sigma->0) =      -58.10588076


--------------------------------------------------------------------------------------------------------




--------------------------------------- Iteration      1(   8)  ---------------------------------------


    POTLOK:  cpu time    0.0045: real time    0.0045
    SETDIJ:  cpu time    0.0020: real time    0.0020
    EDDIAG:  cpu time    0.7953: real time    0.7953
  RMM-DIIS:  cpu time    1.7286: real time    1.7289
    ORTHCH:  cpu time    0.1864: real time    0.1864
       DOS:  cpu time    0.0023: real time    0.0023
    CHARGE:  cpu time    0.0715: real time    0.0715
    MIXING:  cpu time    0.0004: real time    0.0004
    --------------------------------------------
      LOOP:  cpu time    2.7910: real time    2.7914

 eigenvalue-minimisations  :  9639
 total energy-change (2. order) : 0.7609783E+01  (-0.7167274E+00)
 number of electron      79.9999915 magnetization 
 augmentation part       24.9092106 magnetization 

 DIPCOR: dipole corrections for dipol
 direction  3 min pos   167,
 dipolmoment           0.000000      0.000000      0.163042 electrons x Angstroem
 Tr[quadrupol]      -264.576507

 energy correction for charged system         0.000000 eV
 dipol+quadrupol energy correction           -0.006920 eV
 added-field ion interaction          3.899514 eV  (added to PSCEN)


 Broyden mixing:
  rms(total) = 0.16528E+01    rms(broyden)= 0.16528E+01
  rms(prec ) = 0.22644E+01
  weight for this iteration     100.00

 eigenvalues of (default mixing * dielectric matrix)
  average eigenvalue GAMMA=   0.9102
  2.1628  0.2840  0.2840

 Free energy of the ion-electron system (eV)
  ---------------------------------------------------
  alpha Z        PSCENC =       178.92364727
  Ewald energy   TEWEN  =     29938.12170363
  -Hartree energ DENC   =    -35982.65772287
  -exchange      EXHF   =         0.00000000
  -V(xc)+E(xc)   XCENC  =        23.28977024
  PAW double counting   =      6867.56458739    -6662.59406051
  entropy T*S    EENTRO =        -0.00065746
  eigenvalues    EBANDS =      -246.03943440
  atomic energy  EATOM  =      5832.89561447
  Solvation  Ediel_sol  =         0.00000000
  ---------------------------------------------------
  free energy    TOTEN  =       -50.49655223 eV

  energy without entropy =      -50.49589477  energy(sigma->0) =      -50.49633307


--------------------------------------------------------------------------------------------------------




--------------------------------------- Iteration      1(   9)  ---------------------------------------


    POTLOK:  cpu time    0.0046: real time    0.0046
    SETDIJ:  cpu time    0.0020: real time    0.0020
    EDDIAG:  cpu time    0.7978: real time    0.7980
  RMM-DIIS:  cpu time    1.7469: real time    1.7472
    ORTHCH:  cpu time    0.1871: real time    0.1871
       DOS:  cpu time    0.0024: real time    0.0023
    CHARGE:  cpu time    0.0703: real time    0.0703
    MIXING:  cpu time    0.0004: real time    0.0004
    --------------------------------------------
      LOOP:  cpu time    2.8115: real time    2.8121

 eigenvalue-minimisations  :  9640
 total energy-change (2. order) :-0.5044594E+00  (-0.3641274E+00)
 number of electron      79.9999905 magnetization 
 augmentation part       24.9340593 magnetization 

 DIPCOR: dipole corrections for dipol
 direction  3 min pos   162,
 dipolmoment           0.000000      0.000000     -0.209770 electrons x Angstroem
 Tr[quadrupol]      -264.018373

 energy correction for charged system         0.000000 eV
 dipol+quadrupol energy correction           -0.011454 eV
 added-field ion interaction         -0.683466 eV  (added to PSCEN)


 Broyden mixing:
  rms(total) = 0.17018E+01    rms(broyden)= 0.17018E+01
  rms(prec ) = 0.25969E+01
  weight for this iteration     100.00

 eigenvalues of (default mixing * dielectric matrix)
  average eigenvalue GAMMA=   0.8854
  2.2503  0.8967  0.2861  0.1086

 Free energy of the ion-electron system (eV)
  ---------------------------------------------------
  alpha Z        PSCENC =       174.33613199
  Ewald energy   TEWEN  =     29938.12170363
  -Hartree energ DENC   =    -35973.37880062
  -exchange      EXHF   =         0.00000000
  -V(xc)+E(xc)   XCENC  =        23.31095941
  PAW double counting   =      6906.56202966    -6701.96227905
  entropy T*S    EENTRO =        -0.00028880
  eigenvalues    EBANDS =      -250.88608235
  atomic energy  EATOM  =      5832.89561447
  Solvation  Ediel_sol  =         0.00000000
  ---------------------------------------------------
  free energy    TOTEN  =       -51.00101165 eV

  energy without entropy =      -51.00072285  energy(sigma->0) =      -51.00091539


--------------------------------------------------------------------------------------------------------




--------------------------------------- Iteration      1(  10)  ---------------------------------------


    POTLOK:  cpu time    0.0058: real time    0.0073
    SETDIJ:  cpu time    0.0020: real time    0.0020
    EDDIAG:  cpu time    0.8058: real time    0.8060
  RMM-DIIS:  cpu time    1.7315: real time    1.7319
    ORTHCH:  cpu time    0.1889: real time    0.1893
       DOS:  cpu time    0.0023: real time    0.0023
    CHARGE:  cpu time    0.0714: real time    0.0714
    MIXING:  cpu time    0.0005: real time    0.0005
    --------------------------------------------
      LOOP:  cpu time    2.8083: real time    2.8108

 eigenvalue-minimisations  :  9639
 total energy-change (2. order) : 0.2326839E+01  (-0.4333554E+00)
 number of electron      79.9999916 magnetization 
 augmentation part       24.9430973 magnetization 

 DIPCOR: dipole corrections for dipol
 direction  3 min pos   163,
 dipolmoment           0.000000      0.000000      0.139071 electrons x Angstroem
 Tr[quadrupol]      -264.118667

 energy correction for charged system         0.000000 eV
 dipol+quadrupol energy correction           -0.005034 eV
 added-field ion interaction          1.027730 eV  (added to PSCEN)


 Broyden mixing:
  rms(total) = 0.13217E+01    rms(broyden)= 0.13217E+01
  rms(prec ) = 0.17562E+01
  weight for this iteration     100.00

 eigenvalues of (default mixing * dielectric matrix)
  average eigenvalue GAMMA=   0.8255
  2.3305  1.1976  0.2541  0.2541  0.0913

 Free energy of the ion-electron system (eV)
  ---------------------------------------------------
  alpha Z        PSCENC =       176.05374820
  Ewald energy   TEWEN  =     29938.12170363
  -Hartree energ DENC   =    -35977.08289869
  -exchange      EXHF   =         0.00000000
  -V(xc)+E(xc)   XCENC  =        23.40386981
  PAW double counting   =      6959.42154371    -6755.04333456
  entropy T*S    EENTRO =        -0.00299212
  eigenvalues    EBANDS =      -246.44142746
  atomic energy  EATOM  =      5832.89561447
  Solvation  Ediel_sol  =         0.00000000
  ---------------------------------------------------
  free energy    TOTEN  =       -48.67417302 eV

  energy without entropy =      -48.67118090  energy(sigma->0) =      -48.67317565


--------------------------------------------------------------------------------------------------------




--------------------------------------- Iteration      1(  11)  ---------------------------------------


    POTLOK:  cpu time    0.0064: real time    0.0080
    SETDIJ:  cpu time    0.0022: real time    0.0022
    EDDIAG:  cpu time    0.7999: real time    0.8001
  RMM-DIIS:  cpu time    1.6631: real time    1.6635
    ORTHCH:  cpu time    0.1864: real time    0.1864
       DOS:  cpu time    0.0025: real time    0.0025
    CHARGE:  cpu time    0.0691: real time    0.0691
    MIXING:  cpu time    0.0005: real time    0.0005
    --------------------------------------------
      LOOP:  cpu time    2.7300: real time    2.7322

 eigenvalue-minimisations  :  9602
 total energy-change (2. order) : 0.2151810E+01  (-0.5002014E-01)
 number of electron      79.9999914 magnetization 
 augmentation part       24.9290218 magnetization 

 DIPCOR: dipole corrections for dipol
 direction  3 min pos   164,
 dipolmoment           0.000000      0.000000      0.037143 electrons x Angstroem
 Tr[quadrupol]      -264.144880

 energy correction for charged system         0.000000 eV
 dipol+quadrupol energy correction           -0.000359 eV
 added-field ion interaction          0.427951 eV  (added to PSCEN)


 Broyden mixing:
  rms(total) = 0.60924E+00    rms(broyden)= 0.60922E+00
  rms(prec ) = 0.71405E+00
  weight for this iteration     100.00

 eigenvalues of (default mixing * dielectric matrix)
  average eigenvalue GAMMA=   0.7540
  2.0427  1.0819  0.7168  0.2947  0.2947  0.0931

 Free energy of the ion-electron system (eV)
  ---------------------------------------------------
  alpha Z        PSCENC =       175.45864408
  Ewald energy   TEWEN  =     29938.12170363
  -Hartree energ DENC   =    -35981.48229377
  -exchange      EXHF   =         0.00000000
  -V(xc)+E(xc)   XCENC  =        23.48184931
  PAW double counting   =      6999.21696306    -6794.96897366
  entropy T*S    EENTRO =        -0.01067705
  eigenvalues    EBANDS =      -239.23519310
  atomic energy  EATOM  =      5832.89561447
  Solvation  Ediel_sol  =         0.00000000
  ---------------------------------------------------
  free energy    TOTEN  =       -46.52236303 eV

  energy without entropy =      -46.51168598  energy(sigma->0) =      -46.51880401


--------------------------------------------------------------------------------------------------------




--------------------------------------- Iteration      1(  12)  ---------------------------------------


    POTLOK:  cpu time    0.0046: real time    0.0047
    SETDIJ:  cpu time    0.0021: real time    0.0021
    EDDIAG:  cpu time    0.8015: real time    0.8017
  RMM-DIIS:  cpu time    1.7465: real time    1.7467
    ORTHCH:  cpu time    0.1868: real time    0.1880
       DOS:  cpu time    0.0024: real time    0.0024
    CHARGE:  cpu time    0.0690: real time    0.0690
    MIXING:  cpu time    0.0005: real time    0.0005
    --------------------------------------------
      LOOP:  cpu time    2.8135: real time    2.8151

 eigenvalue-minimisations  :  9680
 total energy-change (2. order) : 0.2541092E+00  (-0.4805124E-01)
 number of electron      79.9999915 magnetization 
 augmentation part       24.9345904 magnetization 

 DIPCOR: dipole corrections for dipol
 direction  3 min pos   157,
 dipolmoment           0.000000      0.000000      0.032857 electrons x Angstroem
 Tr[quadrupol]      -263.871037

 energy correction for charged system         0.000000 eV
 dipol+quadrupol energy correction           -0.000281 eV
 added-field ion interaction         -0.571748 eV  (added to PSCEN)


 Broyden mixing:
  rms(total) = 0.44436E+00    rms(broyden)= 0.44434E+00
  rms(prec ) = 0.63451E+00
  weight for this iteration     100.00

 eigenvalues of (default mixing * dielectric matrix)
  average eigenvalue GAMMA=   0.7948
  2.2522  1.2562  0.7025  0.7025  0.2787  0.2787  0.0928

 Free energy of the ion-electron system (eV)
  ---------------------------------------------------
  alpha Z        PSCENC =       174.45902344
  Ewald energy   TEWEN  =     29938.12170363
  -Hartree energ DENC   =    -35976.73712943
  -exchange      EXHF   =         0.00000000
  -V(xc)+E(xc)   XCENC  =        23.58482034
  PAW double counting   =      6957.80319537    -6752.86156554
  entropy T*S    EENTRO =        -0.00622468
  eigenvalues    EBANDS =      -243.52769147
  atomic energy  EATOM  =      5832.89561447
  Solvation  Ediel_sol  =         0.00000000
  ---------------------------------------------------
  free energy    TOTEN  =       -46.26825387 eV

  energy without entropy =      -46.26202920  energy(sigma->0) =      -46.26617898


--------------------------------------------------------------------------------------------------------




--------------------------------------- Iteration      1(  13)  ---------------------------------------


    POTLOK:  cpu time    0.0055: real time    0.0062
    SETDIJ:  cpu time    0.0020: real time    0.0020
    EDDIAG:  cpu time    0.8003: real time    0.8003
  RMM-DIIS:  cpu time    1.7433: real time    1.7437
    ORTHCH:  cpu time    0.1840: real time    0.1840
       DOS:  cpu time    0.0025: real time    0.0025
    CHARGE:  cpu time    0.0683: real time    0.0683
    MIXING:  cpu time    0.0005: real time    0.0005
    --------------------------------------------
      LOOP:  cpu time    2.8065: real time    2.8075

 eigenvalue-minimisations  :  9665
 total energy-change (2. order) : 0.1111274E+00  (-0.1499774E-01)
 number of electron      79.9999913 magnetization 
 augmentation part       24.9087379 magnetization 

 DIPCOR: dipole corrections for dipol
 direction  3 min pos   155,
 dipolmoment           0.000000      0.000000     -0.007122 electrons x Angstroem
 Tr[quadrupol]      -264.105440

 energy correction for charged system         0.000000 eV
 dipol+quadrupol energy correction           -0.000013 eV
 added-field ion interaction          0.182791 eV  (added to PSCEN)


 Broyden mixing:
  rms(total) = 0.29255E+00    rms(broyden)= 0.29253E+00
  rms(prec ) = 0.37984E+00
  weight for this iteration     100.00

 eigenvalues of (default mixing * dielectric matrix)
  average eigenvalue GAMMA=   0.7157
  2.2432  1.2509  0.7293  0.7293  0.2793  0.2793  0.0928  0.1214

 Free energy of the ion-electron system (eV)
  ---------------------------------------------------
  alpha Z        PSCENC =       175.21383050
  Ewald energy   TEWEN  =     29938.12170363
  -Hartree energ DENC   =    -35982.34900292
  -exchange      EXHF   =         0.00000000
  -V(xc)+E(xc)   XCENC  =        23.56746444
  PAW double counting   =      6982.52789430    -6777.79973505
  entropy T*S    EENTRO =        -0.00851650
  eigenvalues    EBANDS =      -238.32637938
  atomic energy  EATOM  =      5832.89561447
  Solvation  Ediel_sol  =         0.00000000
  ---------------------------------------------------
  free energy    TOTEN  =       -46.15712652 eV

  energy without entropy =      -46.14861001  energy(sigma->0) =      -46.15428768


--------------------------------------------------------------------------------------------------------




--------------------------------------- Iteration      1(  14)  ---------------------------------------


    POTLOK:  cpu time    0.0049: real time    0.0058
    SETDIJ:  cpu time    0.0020: real time    0.0020
    EDDIAG:  cpu time    0.8030: real time    0.8032
  RMM-DIIS:  cpu time    1.8768: real time    1.8772
    ORTHCH:  cpu time    0.1858: real time    0.1858
       DOS:  cpu time    0.0025: real time    0.0025
    CHARGE:  cpu time    0.0670: real time    0.0670
    MIXING:  cpu time    0.0005: real time    0.0005
    --------------------------------------------
      LOOP:  cpu time    2.9425: real time    2.9439

 eigenvalue-minimisations  : 10530
 total energy-change (2. order) : 0.9248805E-02  (-0.7715260E-03)
 number of electron      79.9999913 magnetization 
 augmentation part       24.9084420 magnetization 

 DIPCOR: dipole corrections for dipol
 direction  3 min pos   161,
 dipolmoment           0.000000      0.000000     -0.007657 electrons x Angstroem
 Tr[quadrupol]      -264.103119

 energy correction for charged system         0.000000 eV
 dipol+quadrupol energy correction           -0.000015 eV
 added-field ion interaction          0.006690 eV  (added to PSCEN)


 Broyden mixing:
  rms(total) = 0.27791E+00    rms(broyden)= 0.27791E+00
  rms(prec ) = 0.36502E+00
  weight for this iteration     100.00

 eigenvalues of (default mixing * dielectric matrix)
  average eigenvalue GAMMA=   0.8449
  2.0958  1.2781  1.2781  1.1857  0.5602  0.5602  0.2766  0.2766  0.0928

 Free energy of the ion-electron system (eV)
  ---------------------------------------------------
  alpha Z        PSCENC =       175.03772696
  Ewald energy   TEWEN  =     29938.12170363
  -Hartree energ DENC   =    -35982.45748295
  -exchange      EXHF   =         0.00000000
  -V(xc)+E(xc)   XCENC  =        23.57395374
  PAW double counting   =      6980.35519735    -6775.58518774
  entropy T*S    EENTRO =        -0.00862255
  eigenvalues    EBANDS =      -238.08078061
  atomic energy  EATOM  =      5832.89561447
  Solvation  Ediel_sol  =         0.00000000
  ---------------------------------------------------
  free energy    TOTEN  =       -46.14787771 eV

  energy without entropy =      -46.13925516  energy(sigma->0) =      -46.14500353


--------------------------------------------------------------------------------------------------------




--------------------------------------- Iteration      1(  15)  ---------------------------------------


    POTLOK:  cpu time    0.0047: real time    0.0047
    SETDIJ:  cpu time    0.0020: real time    0.0020
    EDDIAG:  cpu time    0.8021: real time    0.8024
  RMM-DIIS:  cpu time    1.7522: real time    1.7526
    ORTHCH:  cpu time    0.1890: real time    0.1890
       DOS:  cpu time    0.0024: real time    0.0024
    CHARGE:  cpu time    0.0671: real time    0.0671
    MIXING:  cpu time    0.0009: real time    0.0009
    --------------------------------------------
      LOOP:  cpu time    2.8204: real time    2.8210

 eigenvalue-minimisations  :  9670
 total energy-change (2. order) : 0.5826595E-01  (-0.1796864E-02)
 number of electron      79.9999914 magnetization 
 augmentation part       24.9018300 magnetization 

 DIPCOR: dipole corrections for dipol
 direction  3 min pos   163,
 dipolmoment           0.000000      0.000000     -0.002921 electrons x Angstroem
 Tr[quadrupol]      -264.110783

 energy correction for charged system         0.000000 eV
 dipol+quadrupol energy correction           -0.000002 eV
 added-field ion interaction         -0.021587 eV  (added to PSCEN)


 Broyden mixing:
  rms(total) = 0.11442E+00    rms(broyden)= 0.11442E+00
  rms(prec ) = 0.14504E+00
  weight for this iteration     100.00

 eigenvalues of (default mixing * dielectric matrix)
  average eigenvalue GAMMA=   0.8777
  1.9827  1.7213  1.7213  0.9098  0.6319  0.6319  0.5326  0.2763  0.2763  0.0928

 Free energy of the ion-electron system (eV)
  ---------------------------------------------------
  alpha Z        PSCENC =       175.00946349
  Ewald energy   TEWEN  =     29938.12170363
  -Hartree energ DENC   =    -35983.89991981
  -exchange      EXHF   =         0.00000000
  -V(xc)+E(xc)   XCENC  =        23.62633826
  PAW double counting   =      6966.34444317    -6761.20995709
  entropy T*S    EENTRO =        -0.00912086
  eigenvalues    EBANDS =      -236.96817703
  atomic energy  EATOM  =      5832.89561447
  Solvation  Ediel_sol  =         0.00000000
  ---------------------------------------------------
  free energy    TOTEN  =       -46.08961176 eV

  energy without entropy =      -46.08049090  energy(sigma->0) =      -46.08657147


--------------------------------------------------------------------------------------------------------




--------------------------------------- Iteration      1(  16)  ---------------------------------------


    POTLOK:  cpu time    0.0047: real time    0.0047
    SETDIJ:  cpu time    0.0020: real time    0.0020
    EDDIAG:  cpu time    0.7949: real time    0.7951
  RMM-DIIS:  cpu time    1.7667: real time    1.7670
    ORTHCH:  cpu time    0.1871: real time    0.1871
       DOS:  cpu time    0.0024: real time    0.0024
    CHARGE:  cpu time    0.0700: real time    0.0700
    MIXING:  cpu time    0.0007: real time    0.0007
    --------------------------------------------
      LOOP:  cpu time    2.8285: real time    2.8291

 eigenvalue-minimisations  :  9745
 total energy-change (2. order) : 0.8123014E-02  (-0.7474457E-03)
 number of electron      79.9999914 magnetization 
 augmentation part       24.8967220 magnetization 

 DIPCOR: dipole corrections for dipol
 direction  3 min pos   164,
 dipolmoment           0.000000      0.000000     -0.001705 electrons x Angstroem
 Tr[quadrupol]      -264.134006

 energy correction for charged system         0.000000 eV
 dipol+quadrupol energy correction           -0.000001 eV
 added-field ion interaction         -0.019648 eV  (added to PSCEN)


 Broyden mixing:
  rms(total) = 0.63787E-01    rms(broyden)= 0.63784E-01
  rms(prec ) = 0.77923E-01
  weight for this iteration     100.00

 eigenvalues of (default mixing * dielectric matrix)
  average eigenvalue GAMMA=   0.8294
  1.9111  1.8106  1.8106  0.8410  0.6397  0.6397  0.5172  0.0928  0.2762  0.2762
  0.3085

 Free energy of the ion-electron system (eV)
  ---------------------------------------------------
  alpha Z        PSCENC =       175.01140351
  Ewald energy   TEWEN  =     29938.12170363
  -Hartree energ DENC   =    -35985.19438988
  -exchange      EXHF   =         0.00000000
  -V(xc)+E(xc)   XCENC  =        23.65293561
  PAW double counting   =      6963.75253927    -6758.47375228
  entropy T*S    EENTRO =        -0.00868408
  eigenvalues    EBANDS =      -235.83885899
  atomic energy  EATOM  =      5832.89561447
  Solvation  Ediel_sol  =         0.00000000
  ---------------------------------------------------
  free energy    TOTEN  =       -46.08148874 eV

  energy without entropy =      -46.07280466  energy(sigma->0) =      -46.07859405


--------------------------------------------------------------------------------------------------------




--------------------------------------- Iteration      1(  17)  ---------------------------------------


    POTLOK:  cpu time    0.0047: real time    0.0047
    SETDIJ:  cpu time    0.0021: real time    0.0021
    EDDIAG:  cpu time    0.7934: real time    0.7936
  RMM-DIIS:  cpu time    1.8689: real time    1.8693
    ORTHCH:  cpu time    0.1871: real time    0.1871
       DOS:  cpu time    0.0024: real time    0.0024
    CHARGE:  cpu time    0.0675: real time    0.0675
    MIXING:  cpu time    0.0007: real time    0.0007
    --------------------------------------------
      LOOP:  cpu time    2.9267: real time    2.9273

 eigenvalue-minimisations  : 10136
 total energy-change (2. order) : 0.1158973E-02  (-0.1291015E-03)
 number of electron      79.9999914 magnetization 
 augmentation part       24.8954801 magnetization 

 DIPCOR: dipole corrections for dipol
 direction  3 min pos   164,
 dipolmoment           0.000000      0.000000     -0.001554 electrons x Angstroem
 Tr[quadrupol]      -264.139890

 energy correction for charged system         0.000000 eV
 dipol+quadrupol energy correction           -0.000001 eV
 added-field ion interaction         -0.017903 eV  (added to PSCEN)


 Broyden mixing:
  rms(total) = 0.50977E-01    rms(broyden)= 0.50977E-01
  rms(prec ) = 0.63482E-01
  weight for this iteration     100.00

 eigenvalues of (default mixing * dielectric matrix)
  average eigenvalue GAMMA=   0.8398
  2.0113  1.6828  1.6828  0.8416  0.8416  0.8923  0.6147  0.6147  0.0928  0.2764
  0.2764  0.2499

 Free energy of the ion-electron system (eV)
  ---------------------------------------------------
  alpha Z        PSCENC =       175.01314929
  Ewald energy   TEWEN  =     29938.12170363
  -Hartree energ DENC   =    -35985.41541611
  -exchange      EXHF   =         0.00000000
  -V(xc)+E(xc)   XCENC  =        23.65748038
  PAW double counting   =      6963.57270508    -6758.27401638
  entropy T*S    EENTRO =        -0.00862614
  eigenvalues    EBANDS =      -235.64292400
  atomic energy  EATOM  =      5832.89561447
  Solvation  Ediel_sol  =         0.00000000
  ---------------------------------------------------
  free energy    TOTEN  =       -46.08032977 eV

  energy without entropy =      -46.07170363  energy(sigma->0) =      -46.07745439


--------------------------------------------------------------------------------------------------------




--------------------------------------- Iteration      1(  18)  ---------------------------------------


    POTLOK:  cpu time    0.0046: real time    0.0046
    SETDIJ:  cpu time    0.0020: real time    0.0020
    EDDIAG:  cpu time    0.7962: real time    0.7965
  RMM-DIIS:  cpu time    1.7703: real time    1.7706
    ORTHCH:  cpu time    0.1874: real time    0.1874
       DOS:  cpu time    0.0024: real time    0.0024
    CHARGE:  cpu time    0.0676: real time    0.0676
    MIXING:  cpu time    0.0007: real time    0.0007
    --------------------------------------------
      LOOP:  cpu time    2.8312: real time    2.8319

 eigenvalue-minimisations  :  9802
 total energy-change (2. order) : 0.1196841E-02  (-0.5135226E-04)
 number of electron      79.9999914 magnetization 
 augmentation part       24.8954167 magnetization 

 DIPCOR: dipole corrections for dipol
 direction  3 min pos   158,
 dipolmoment           0.000000      0.000000     -0.000453 electrons x Angstroem
 Tr[quadrupol]      -264.144166

 energy correction for charged system         0.000000 eV
 dipol+quadrupol energy correction           -0.000000 eV
 added-field ion interaction          0.006008 eV  (added to PSCEN)


 Broyden mixing:
  rms(total) = 0.38855E-01    rms(broyden)= 0.38855E-01
  rms(prec ) = 0.51187E-01
  weight for this iteration     100.00

 eigenvalues of (default mixing * dielectric matrix)
  average eigenvalue GAMMA=   0.8715
  2.1693  1.7833  1.7833  1.0641  0.9754  0.9754  0.6448  0.6448  0.0928  0.2763
  0.2763  0.4010  0.2421

 Free energy of the ion-electron system (eV)
  ---------------------------------------------------
  alpha Z        PSCENC =       175.03706099
  Ewald energy   TEWEN  =     29938.12170363
  -Hartree energ DENC   =    -35985.50829250
  -exchange      EXHF   =         0.00000000
  -V(xc)+E(xc)   XCENC  =        23.65853476
  PAW double counting   =      6964.41632763    -6759.12576510
  entropy T*S    EENTRO =        -0.00865606
  eigenvalues    EBANDS =      -235.56566075
  atomic energy  EATOM  =      5832.89561447
  Solvation  Ediel_sol  =         0.00000000
  ---------------------------------------------------
  free energy    TOTEN  =       -46.07913293 eV

  energy without entropy =      -46.07047687  energy(sigma->0) =      -46.07624758


--------------------------------------------------------------------------------------------------------




--------------------------------------- Iteration      1(  19)  ---------------------------------------


    POTLOK:  cpu time    0.0047: real time    0.0047
    SETDIJ:  cpu time    0.0020: real time    0.0020
[...]
  augment   420.43158   417.19747   427.55889     0.00000    -0.00000    -0.79413
  Kinetic  1156.78151  1151.06137  1179.65607    -0.00000    -0.00000    -1.62341
  Fock        0.00000     0.00000     0.00000     0.00000     0.00000     0.00000
  -------------------------------------------------------------------------------------
  Total     -10.69529    -9.07945     0.25249    -0.00000    -0.00000     0.04188
  in kB     -49.30016   -41.85193     1.16384    -0.00000    -0.00000     0.19304
  external pressure =      -30.00 kB  Pullay stress =        0.00 kB



--------------------------------------------------------------------------------------------------------



  FREE ENERGIE OF THE ION-ELECTRON SYSTEM (eV)
  ---------------------------------------------------
  free  energy   TOTEN  =       -46.08462268 eV

  energy  without entropy=      -46.07720998  energy(sigma->0) =      -46.08215178
 
 d Force = 0.1333097E-02[-0.905E-03, 0.357E-02]  d Energy = 0.1395932E-02-0.628E-04
 d Force =-0.1610792E+03[-0.161E+03,-0.161E+03]  d Ewald  =-0.1610793E+03 0.671E-04


--------------------------------------------------------------------------------------------------------


    POTLOK:  cpu time    0.0073: real time    0.0079


--------------------------------------------------------------------------------------------------------


 stress matrix after NEB project (eV)
    -10.69529     -0.00000      0.04188
     -0.00000     -9.07945     -0.00000
      0.04188     -0.00000      0.25249
  FORCES: max atom, RMS     0.016407    0.008964
  FORCE total and by dimension    0.025354    0.016407
  Stress total and by dimension   14.031854   10.695289
 Quasi-Newton relaxation of ions (Broydens 2nd method)
  g(Force)  = 0.620E-05   g(Stress)= 0.000E+00

 retain information from N=  1 steps
 eigenvalues of (default step * inverse Hessian matrix)
  average eigenvalue of G=  44.1973
 eigenvalue spectrum of G is 44.1973


--------------------------------------------------------------------------------------------------------


    WAVPRE:  cpu time    0.0013: real time    0.0013
    FEWALD:  cpu time    0.0002: real time    0.0002
    ORTHCH:  cpu time    0.2859: real time    0.2861
     LOOP+:  cpu time   39.2703: real time   39.2896


--------------------------------------- Iteration      8(   1)  ---------------------------------------


    POTLOK:  cpu time    0.0053: real time    0.0053
    SETDIJ:  cpu time    0.0021: real time    0.0021
     EDDAV:  cpu time    6.8280: real time    6.8298
       DOS:  cpu time    0.0024: real time    0.0024
    CHARGE:  cpu time    0.0691: real time    0.0691
    MIXING:  cpu time    0.0003: real time    0.0003
    --------------------------------------------
      LOOP:  cpu time    6.9072: real time    6.9091

 eigenvalue-minimisations  :  9600
 total energy-change (2. order) : 0.2350141E-03  (-0.3383302E-01)
 number of electron      79.9999929 magnetization 
 augmentation part       24.8875932 magnetization 

 DIPCOR: dipole corrections for dipol
 direction  3 min pos   161,
 dipolmoment           0.000000      0.000000      0.000087 electrons x Angstroem
 Tr[quadrupol]      -264.237441

 energy correction for charged system         0.000000 eV
 dipol+quadrupol energy correction           -0.000000 eV
 added-field ion interaction         -0.000023 eV  (added to PSCEN)


  free energy =  -0.460843873723E+02  energy without entropy=  -0.460767833119E+02


--------------------------------------------------------------------------------------------------------




--------------------------------------- Iteration      8(   2)  ---------------------------------------


    POTLOK:  cpu time    0.0056: real time    0.0073
    SETDIJ:  cpu time    0.0021: real time    0.0020
    EDDIAG:  cpu time    0.7975: real time    0.7975
  RMM-DIIS:  cpu time    1.6892: real time    1.6896
    ORTHCH:  cpu time    0.1868: real time    0.1868
       DOS:  cpu time    0.0023: real time    0.0023
    CHARGE:  cpu time    0.0691: real time    0.0691
    MIXING:  cpu time    0.0003: real time    0.0003
    --------------------------------------------
      LOOP:  cpu time    2.7530: real time    2.7550

 eigenvalue-minimisations  :  9630
 total energy-change (2. order) :-0.1899385E-02  (-0.4187452E-03)
 number of electron      79.9999929 magnetization 
 augmentation part       24.8874426 magnetization 

 DIPCOR: dipole corrections for dipol
 direction  3 min pos   161,
 dipolmoment           0.000000      0.000000      0.003575 electrons x Angstroem
 Tr[quadrupol]      -264.235179

 energy correction for charged system         0.000000 eV
 dipol+quadrupol energy correction           -0.000003 eV
 added-field ion interaction         -0.000944 eV  (added to PSCEN)


 eigenvalues of (default mixing * dielectric matrix)
  average eigenvalue GAMMA=   0.0599
  0.0599

  free energy =  -0.460862867575E+02  energy without entropy=  -0.460787787721E+02


--------------------------------------------------------------------------------------------------------




--------------------------------------- Iteration      8(   3)  ---------------------------------------


    POTLOK:  cpu time    0.0048: real time    0.0059
    SETDIJ:  cpu time    0.0020: real time    0.0020
    EDDIAG:  cpu time    0.7951: real time    0.7953
  RMM-DIIS:  cpu time    1.7962: real time    1.7965
    ORTHCH:  cpu time    0.1867: real time    0.1867
       DOS:  cpu time    0.0024: real time    0.0024
    CHARGE:  cpu time    0.0687: real time    0.0687
    MIXING:  cpu time    0.0003: real time    0.0003
    --------------------------------------------
      LOOP:  cpu time    2.8562: real time    2.8579

 eigenvalue-minimisations  :  9793
 total energy-change (2. order) : 0.1524436E-02  (-0.3717646E-04)
 number of electron      79.9999929 magnetization 
 augmentation part       24.8873411 magnetization 

 DIPCOR: dipole corrections for dipol
 direction  3 min pos   161,
 dipolmoment           0.000000      0.000000      0.000246 electrons x Angstroem
 Tr[quadrupol]      -264.235866

 energy correction for charged system         0.000000 eV
 dipol+quadrupol energy correction           -0.000000 eV
 added-field ion interaction         -0.000065 eV  (added to PSCEN)


 eigenvalues of (default mixing * dielectric matrix)
  average eigenvalue GAMMA=   0.4442
  0.8297  0.0588

  free energy =  -0.460847623218E+02  energy without entropy=  -0.460772105509E+02


--------------------------------------------------------------------------------------------------------




--------------------------------------- Iteration      8(   4)  ---------------------------------------


    POTLOK:  cpu time    0.0053: real time    0.0063
    SETDIJ:  cpu time    0.0020: real time    0.0020
    EDDIAG:  cpu time    0.7939: real time    0.7941
  RMM-DIIS:  cpu time    1.6776: real time    1.6779
    ORTHCH:  cpu time    0.1862: real time    0.1862
       DOS:  cpu time    0.0024: real time    0.0024
    CHARGE:  cpu time    0.0687: real time    0.0687
    MIXING:  cpu time    0.0004: real time    0.0003
    --------------------------------------------
      LOOP:  cpu time    2.7364: real time    2.7381

 eigenvalue-minimisations  :  9640
 total energy-change (2. order) :-0.2440925E-04  (-0.1475186E-04)
 number of electron      79.9999929 magnetization 
 augmentation part       24.8865767 magnetization 

 DIPCOR: dipole corrections for dipol
 direction  3 min pos   161,
 dipolmoment           0.000000      0.000000      0.000178 electrons x Angstroem
 Tr[quadrupol]      -264.242327

 energy correction for charged system         0.000000 eV
 dipol+quadrupol energy correction           -0.000000 eV
 added-field ion interaction         -0.000047 eV  (added to PSCEN)


 eigenvalues of (default mixing * dielectric matrix)
  average eigenvalue GAMMA=   0.4545
  1.1182  0.0577  0.1876

  free energy =  -0.460847867311E+02  energy without entropy=  -0.460771643493E+02


--------------------------------------------------------------------------------------------------------




--------------------------------------- Iteration      8(   5)  ---------------------------------------


    POTLOK:  cpu time    0.0046: real time    0.0046
    SETDIJ:  cpu time    0.0020: real time    0.0020
    EDDIAG:  cpu time    0.7887: real time    0.7889
  RMM-DIIS:  cpu time    1.7811: real time    1.7815
    ORTHCH:  cpu time    0.1843: real time    0.1843
       DOS:  cpu time    0.0024: real time    0.0024
    CHARGE:  cpu time    0.0688: real time    0.0688
    MIXING:  cpu time    0.0004: real time    0.0004
    --------------------------------------------
      LOOP:  cpu time    2.8323: real time    2.8330

 eigenvalue-minimisations  :  9672
 total energy-change (2. order) : 0.7042738E-04  (-0.3840177E-05)
 number of electron      79.9999929 magnetization 
 augmentation part       24.8869887 magnetization 

 DIPCOR: dipole corrections for dipol
 direction  3 min pos   161,
 dipolmoment           0.000000      0.000000      0.000215 electrons x Angstroem
 Tr[quadrupol]      -264.239635

 energy correction for charged system         0.000000 eV
 dipol+quadrupol energy correction           -0.000000 eV
 added-field ion interaction         -0.000057 eV  (added to PSCEN)


 eigenvalues of (default mixing * dielectric matrix)
  average eigenvalue GAMMA=   0.7521
  1.9214  0.8169  0.0580  0.2122

  free energy =  -0.460847163037E+02  energy without entropy=  -0.460771516966E+02


--------------------------------------------------------------------------------------------------------




--------------------------------------- Iteration      8(   6)  ---------------------------------------


    POTLOK:  cpu time    0.0069: real time    0.0069
    SETDIJ:  cpu time    0.0020: real time    0.0020
    EDDIAG:  cpu time    0.7916: real time    0.7918
  RMM-DIIS:  cpu time    1.7329: real time    1.7331
    ORTHCH:  cpu time    0.1895: real time    0.1895
       DOS:  cpu time    0.0025: real time    0.0025
    CHARGE:  cpu time    0.0705: real time    0.0707
    MIXING:  cpu time    0.0004: real time    0.0004
    --------------------------------------------
      LOOP:  cpu time    2.7963: real time    2.7968

 eigenvalue-minimisations  :  9664
 total energy-change (2. order) :-0.6023771E-04  (-0.7016872E-05)
 number of electron      79.9999929 magnetization 
 augmentation part       24.8869256 magnetization 

 DIPCOR: dipole corrections for dipol
 direction  3 min pos   161,
 dipolmoment           0.000000      0.000000      0.000838 electrons x Angstroem
 Tr[quadrupol]      -264.240499

 energy correction for charged system         0.000000 eV
 dipol+quadrupol energy correction           -0.000000 eV
 added-field ion interaction         -0.000221 eV  (added to PSCEN)


 eigenvalues of (default mixing * dielectric matrix)
  average eigenvalue GAMMA=   0.8009
  2.6107  0.8723  0.0580  0.2317  0.2317

  free energy =  -0.460847765414E+02  energy without entropy=  -0.460771999450E+02


--------------------------------------------------------------------------------------------------------




--------------------------------------- Iteration      8(   7)  ---------------------------------------


    POTLOK:  cpu time    0.0047: real time    0.0047
    SETDIJ:  cpu time    0.0021: real time    0.0021
    EDDIAG:  cpu time    0.7916: real time    0.7916
  RMM-DIIS:  cpu time    1.7468: real time    1.7472
    ORTHCH:  cpu time    0.1867: real time    0.1867
       DOS:  cpu time    0.0024: real time    0.0024
    CHARGE:  cpu time    0.0712: real time    0.0712
    MIXING:  cpu time    0.0005: real time    0.0005
    --------------------------------------------
      LOOP:  cpu time    2.8058: real time    2.8062

 eigenvalue-minimisations  :  9669
 total energy-change (2. order) : 0.6090743E-04  (-0.3239075E-05)
 number of electron      79.9999929 magnetization 
 augmentation part       24.8872317 magnetization 

 DIPCOR: dipole corrections for dipol
 direction  3 min pos   161,
 dipolmoment           0.000000      0.000000      0.000443 electrons x Angstroem
 Tr[quadrupol]      -264.238299

 energy correction for charged system         0.000000 eV
 dipol+quadrupol energy correction           -0.000000 eV
 added-field ion interaction         -0.000117 eV  (added to PSCEN)


 eigenvalues of (default mixing * dielectric matrix)
  average eigenvalue GAMMA=   0.8167
  2.3666  1.0010  1.0010  0.0580  0.2696  0.2043

  free energy =  -0.460847156340E+02  energy without entropy=  -0.460771658542E+02


--------------------------------------------------------------------------------------------------------




--------------------------------------- Iteration      8(   8)  ---------------------------------------


    POTLOK:  cpu time    0.0048: real time    0.0048
    SETDIJ:  cpu time    0.0021: real time    0.0021
    EDDIAG:  cpu time    0.7892: real time    0.7894
  RMM-DIIS:  cpu time    1.3456: real time    1.3459
    ORTHCH:  cpu time    0.1867: real time    0.1867
       DOS:  cpu time    0.0024: real time    0.0024
    CHARGE:  cpu time    0.0687: real time    0.0687
    MIXING:  cpu time    0.0005: real time    0.0005
    --------------------------------------------
      LOOP:  cpu time    2.4000: real time    2.4006

 eigenvalue-minimisations  :  7063
 total energy-change (2. order) : 0.1252312E-04  (-0.4783011E-06)
 number of electron      79.9999929 magnetization 
 augmentation part       24.8871556 magnetization 

 DIPCOR: dipole corrections for dipol
 direction  3 min pos   161,
 dipolmoment           0.000000      0.000000      0.000173 electrons x Angstroem
 Tr[quadrupol]      -264.238198

 energy correction for charged system         0.000000 eV
 dipol+quadrupol energy correction           -0.000000 eV
 added-field ion interaction         -0.000046 eV  (added to PSCEN)


 eigenvalues of (default mixing * dielectric matrix)
  average eigenvalue GAMMA=   0.7984
  2.3244  1.0852  1.0852  0.5622  0.0580  0.2700  0.2041

  free energy =  -0.460847031109E+02  energy without entropy=  -0.460771426499E+02


--------------------------------------------------------------------------------------------------------




--------------------------------------- Iteration      8(   9)  ---------------------------------------


    POTLOK:  cpu time    0.0057: real time    0.0062
    SETDIJ:  cpu time    0.0021: real time    0.0021
    EDDIAG:  cpu time    0.7945: real time    0.7948
  RMM-DIIS:  cpu time    1.0959: real time    1.0961
    ORTHCH:  cpu time    0.1880: real time    0.1880
       DOS:  cpu time    0.0023: real time    0.0023
    --------------------------------------------
      LOOP:  cpu time    2.0885: real time    2.0894

 eigenvalue-minimisations  :  5125
 total energy-change (2. order) : 0.1262506E-06  (-0.7598096E-07)
 number of electron      79.9999929 magnetization 
 augmentation part       24.8871556 magnetization 

 DIPCOR: dipole corrections for dipol
 direction  3 min pos   161,
 dipolmoment           0.000000      0.000000      0.000178 electrons x Angstroem
 Tr[quadrupol]      -264.238133

 energy correction for charged system         0.000000 eV
 dipol+quadrupol energy correction           -0.000000 eV
 added-field ion interaction         -0.000047 eV  (added to PSCEN)


  free energy =  -0.460847029846E+02  energy without entropy=  -0.460771421905E+02


--------------------------------------------------------------------------------------------------------




------------------------ aborting loop because EDIFF is reached ----------------------------------------


    CHARGE:  cpu time    0.0687: real time    0.0687
    FORLOC:  cpu time    0.0004: real time    0.0004
    FORNL :  cpu time    0.6682: real time    0.6684
    STRESS:  cpu time    1.2934: real time    1.2936
    FORCOR:  cpu time    0.0043: real time    0.0043
    FORHAR:  cpu time    0.0015: real time    0.0015
    MIXING:  cpu time    0.0005: real time    0.0005
    OFIELD:  cpu time    0.0000: real time    0.0000

  FORCE on cell =-STRESS in cart. coord.  units (eV):
  Direction    XX          YY          ZZ          XY          YZ          ZX
  --------------------------------------------------------------------------------------
  Alpha Z   175.03105   175.03105   175.03105
  Ewald   34473.69781 34514.12295-38871.25203     0.00000     0.00000     9.50465
  Hartree 35792.53559 35804.36523-35431.42637    -0.00000    -0.00000     2.93069
  E(xc)    -353.47392  -353.30239  -355.59041     0.00000     0.00000     0.05916
  Local  -71704.54374-71750.08553 72845.82957     0.00000     0.00000   -10.58902
  n-local    28.87923    32.57118    30.13200    -0.00000    -0.00000     0.54663
  augment   420.41230   417.17600   427.64930    -0.00000     0.00000    -0.79241
  Kinetic  1156.66691  1150.94662  1179.75620    -0.00000     0.00000    -1.62194
  Fock        0.00000     0.00000     0.00000     0.00000     0.00000     0.00000
  -------------------------------------------------------------------------------------
  Total     -10.79476    -9.17488     0.12932    -0.00000     0.00000     0.03776
  in kB     -49.75869   -42.29182     0.59608    -0.00000     0.00000     0.17406
  external pressure =      -30.48 kB  Pullay stress =        0.00 kB



--------------------------------------------------------------------------------------------------------



  FREE ENERGIE OF THE ION-ELECTRON SYSTEM (eV)
  ---------------------------------------------------
  free  energy   TOTEN  =       -46.08470298 eV

  energy  without entropy=      -46.07714219  energy(sigma->0) =      -46.08218272
 
 d Force = 0.8773195E-04[ 0.139E-04, 0.162E-03]  d Energy = 0.8030480E-04 0.743E-05
 d Force = 0.2820871E+02[ 0.282E+02, 0.282E+02]  d Ewald  = 0.2820871E+02-0.375E-06


--------------------------------------------------------------------------------------------------------


    POTLOK:  cpu time    0.0064: real time    0.0064


--------------------------------------------------------------------------------------------------------


 stress matrix after NEB project (eV)
    -10.79476     -0.00000      0.03776
     -0.00000     -9.17488     -0.00000
      0.03776      0.00000      0.12932
  FORCES: max atom, RMS     0.009626    0.005172
  FORCE total and by dimension    0.014630    0.009626
  Stress total and by dimension   14.167743   10.794762
 Quasi-Newton relaxation of ions (Broydens 2nd method)
  g(Force)  = 0.207E-05   g(Stress)= 0.000E+00

 retain information from N=  1 steps
 eigenvalues of (default step * inverse Hessian matrix)
  average eigenvalue of G=  42.3639
 eigenvalue spectrum of G is 42.3639


--------------------------------------------------------------------------------------------------------


  
 reached required accuracy - stopping structural energy minimisation
     LOOP+:  cpu time   30.2234: real time   30.2341
    4ORBIT:  cpu time    0.0000: real time    0.0000

 total amount of memory used by VASP MPI-rank0    65007. kBytes
=======================================================================

   base      :      30000. kBytes
   nonl-proj :      23186. kBytes
   fftplans  :        578. kBytes
   grid      :        768. kBytes
   one-center:         31. kBytes
   wavefun   :      10444. kBytes
 
  
  
 General timing and accounting informations for this job:
 ========================================================
  
                  Total CPU time used (sec):      313.824
                            User time (sec):      238.450
                          System time (sec):       75.374
                         Elapsed time (sec):      313.965
  
                   Maximum memory used (kb):      161736.
                   Average memory used (kb):           0.
  
                          Minor page faults:       134609
                          Major page faults:            0
                 Voluntary context switches:     24663373
