       N       E                     dE             d eps       ncg     rms          rms(c)
DAV:   1     0.429527982643E+04    0.42953E+04   -0.26589E+05  3920   0.127E+03
DAV:   2    -0.569777067876E+02   -0.43523E+04   -0.40104E+04  4680   0.277E+02
DAV:   3    -0.391898455735E+03   -0.33492E+03   -0.30249E+03  4664   0.707E+01
DAV:   4    -0.408724916161E+03   -0.16826E+02   -0.15747E+02  5096   0.143E+01
DAV:   5    -0.409168340140E+03   -0.44342E+00   -0.43933E+00  4880   0.241E+00    0.825E+01
RMM:   6    -0.398361320907E+03    0.10807E+02   -0.84282E+01  3937   0.142E+01    0.646E+01
RMM:   7    -0.669517063943E+03   -0.27116E+03   -0.38674E+02  4421   0.177E+01    0.110E+02
RMM:   8    -0.501975381835E+03    0.16754E+03   -0.13018E+02  3920   0.117E+01    0.868E+01
RMM:   9    -0.430824701773E+03    0.71151E+02   -0.57450E+01  3933   0.926E+00    0.507E+01
RMM:  10    -0.412479451760E+03    0.18345E+02   -0.71452E+01  3926   0.100E+01    0.525E+01
RMM:  11    -0.390047038990E+03    0.22432E+02   -0.15218E+01  3933   0.465E+00    0.295E+01
RMM:  12    -0.384775119628E+03    0.52719E+01   -0.68809E+00  3937   0.321E+00    0.186E+01
RMM:  13    -0.383379118071E+03    0.13960E+01   -0.24994E+00  3940   0.193E+00    0.139E+01
RMM:  14    -0.381968718233E+03    0.14104E+01   -0.78635E-01  3943   0.110E+00    0.784E+00
RMM:  15    -0.381790720340E+03    0.17800E+00   -0.35998E-01  3946   0.716E-01    0.690E+00
RMM:  16    -0.381675371631E+03    0.11535E+00   -0.21052E-01  3949   0.544E-01    0.555E+00
RMM:  17    -0.381719298433E+03   -0.43927E-01   -0.19643E-01  3940   0.534E-01    0.538E+00
RMM:  18    -0.381666542737E+03    0.52756E-01   -0.17250E-01  3941   0.523E-01    0.417E+00
RMM:  19    -0.381570273448E+03    0.96269E-01   -0.12096E-01  3938   0.445E-01    0.261E+00
RMM:  20    -0.381531985872E+03    0.38288E-01   -0.58956E-02  3937   0.296E-01    0.192E+00
RMM:  21    -0.381522453636E+03    0.95322E-02   -0.17106E-02  3942   0.159E-01    0.140E+00
RMM:  22    -0.381515975438E+03    0.64782E-02   -0.76673E-03  3939   0.112E-01    0.933E-01
RMM:  23    -0.381512926442E+03    0.30490E-02   -0.42963E-03  3939   0.854E-02    0.740E-01
RMM:  24    -0.381512013626E+03    0.91282E-03   -0.26349E-03  3940   0.639E-02    0.761E-01
RMM:  25    -0.381508636552E+03    0.33771E-02   -0.20923E-03  3939   0.561E-02    0.448E-01
RMM:  26    -0.381506684991E+03    0.19516E-02   -0.14740E-03  3937   0.454E-02    0.215E-01
RMM:  27    -0.381506469944E+03    0.21505E-03   -0.56909E-04  3954   0.266E-02    0.179E-01
RMM:  28    -0.381506410276E+03    0.59667E-04   -0.20892E-04  3954   0.172E-02    0.136E-01
RMM:  29    -0.381506432957E+03   -0.22681E-04   -0.24577E-04  3939   0.177E-02    0.118E-01
RMM:  30    -0.381506425959E+03    0.69979E-05   -0.12198E-04  3941   0.129E-02    0.593E-02
RMM:  31    -0.381506469423E+03   -0.43464E-04   -0.26436E-05  4031   0.593E-03    0.507E-02
RMM:  32    -0.381506604774E+03   -0.13535E-03   -0.29114E-05  3921   0.565E-03    0.286E-02
RMM:  33    -0.381506702172E+03   -0.97397E-04   -0.15899E-05  3911   0.437E-03    0.205E-02
RMM:  34    -0.381506795337E+03   -0.93166E-04   -0.86407E-06  3389   0.329E-03    0.259E-02
RMM:  35    -0.381506860107E+03   -0.64769E-04   -0.48978E-06  2811   0.224E-03    0.156E-02
RMM:  36    -0.381506962396E+03   -0.10229E-03   -0.79445E-06  3066   0.255E-03    0.171E-02
RMM:  37    -0.381507043584E+03   -0.81188E-04   -0.48227E-06  2753   0.203E-03    0.853E-03
RMM:  38    -0.381507082498E+03   -0.38914E-04   -0.19606E-06  2426   0.129E-03    0.713E-03
RMM:  39    -0.381507127556E+03   -0.45058E-04   -0.25374E-06  2555   0.136E-03    0.486E-03
RMM:  40    -0.381507151508E+03   -0.23952E-04   -0.12310E-06  2281   0.986E-04    0.412E-03
RMM:  41    -0.381507162547E+03   -0.11039E-04   -0.47097E-07  1765   0.630E-04    0.308E-03
RMM:  42    -0.381507173114E+03   -0.10566E-04   -0.27823E-07  1381   0.516E-04    0.237E-03
RMM:  43    -0.381507184370E+03   -0.11256E-04   -0.23950E-07  1475   0.489E-04    0.308E-03
RMM:  44    -0.381507195673E+03   -0.11304E-04   -0.22256E-07  1402   0.455E-04    0.321E-03
RMM:  45    -0.381507207236E+03   -0.11563E-04   -0.10721E-06  2184   0.949E-04    0.219E-02
RMM:  46    -0.381507217563E+03   -0.10327E-04   -0.11583E-06  2201   0.977E-04    0.383E-02
RMM:  47    -0.381507220259E+03   -0.26967E-05   -0.30385E-07  1507   0.531E-04    0.391E-02
RMM:  48    -0.381507222936E+03   -0.26764E-05   -0.15559E-07  1127   0.435E-04    0.420E-02
RMM:  49    -0.381507229429E+03   -0.64935E-05   -0.31724E-07  1875   0.566E-04    0.486E-02
RMM:  50    -0.381507229587E+03   -0.15776E-06   -0.39010E-08   631   0.346E-04
   1 F= -.41557521E+03 E0= -.41523496E+03  d E =-.415575E+03
       N       E                     dE             d eps       ncg     rms          rms(c)
DAV:   1    -0.381504358130E+03    0.28713E-02   -0.21892E+00  3984   0.194E+00    0.259E-01
RMM:   2    -0.381526131181E+03   -0.21773E-01   -0.34477E-02  3935   0.314E-01    0.147E+00
RMM:   3    -0.381507516656E+03    0.18615E-01   -0.39467E-03  3965   0.808E-02    0.283E-01
RMM:   4    -0.381507016050E+03    0.50061E-03   -0.78984E-04  3945   0.373E-02    0.183E-01
RMM:   5    -0.381507332943E+03   -0.31689E-03   -0.76368E-04  3941   0.347E-02    0.329E-01
RMM:   6    -0.381506891087E+03    0.44186E-03   -0.59095E-04  3940   0.303E-02    0.175E-01
RMM:   7    -0.381506845751E+03    0.45337E-04   -0.40123E-04  3935   0.253E-02    0.153E-01
RMM:   8    -0.381506759742E+03    0.86009E-04   -0.17374E-04  3932   0.170E-02    0.997E-02
RMM:   9    -0.381506720260E+03    0.39482E-04   -0.54196E-05  3937   0.949E-03    0.647E-02
RMM:  10    -0.381506692470E+03    0.27790E-04   -0.18699E-05  3916   0.550E-03    0.354E-02
RMM:  11    -0.381506683249E+03    0.92204E-05   -0.91606E-06  3898   0.378E-03    0.180E-02
RMM:  12    -0.381506682274E+03    0.97522E-06   -0.45758E-06  2936   0.269E-03
   2 F= -.41559493E+03 E0= -.41525475E+03  d E =-.197148E-01
       N       E                     dE             d eps       ncg     rms          rms(c)
DAV:   1    -0.381458066580E+03    0.48617E-01   -0.32724E+01  3952   0.757E+00    0.909E-01
RMM:   2    -0.381586253620E+03   -0.12819E+00   -0.47389E-01  3934   0.119E+00    0.322E+00
RMM:   3    -0.381511759250E+03    0.74494E-01   -0.41521E-02  3973   0.275E-01    0.125E+00
RMM:   4    -0.381502190026E+03    0.95692E-02   -0.11992E-02  3941   0.143E-01    0.892E-01
RMM:   5    -0.381500680742E+03    0.15093E-02   -0.78361E-03  3945   0.113E-01    0.987E-01
RMM:   6    -0.381496780098E+03    0.39006E-02   -0.67512E-03  3942   0.103E-01    0.594E-01
RMM:   7    -0.381497136411E+03   -0.35631E-03   -0.56285E-03  3940   0.942E-02    0.634E-01
RMM:   8    -0.381495509490E+03    0.16269E-02   -0.26717E-03  3943   0.666E-02    0.386E-01
RMM:   9    -0.381494800614E+03    0.70888E-03   -0.82468E-04  3940   0.372E-02    0.237E-01
RMM:  10    -0.381494417894E+03    0.38272E-03   -0.26279E-04  3936   0.210E-02    0.135E-01
RMM:  11    -0.381494286722E+03    0.13117E-03   -0.12586E-04  3937   0.137E-02    0.749E-02
RMM:  12    -0.381494248399E+03    0.38323E-04   -0.66620E-05  3935   0.101E-02    0.493E-02
RMM:  13    -0.381494240794E+03    0.76051E-05   -0.22688E-05  3930   0.600E-03    0.373E-02
RMM:  14    -0.381494236204E+03    0.45897E-05   -0.13656E-05  3917   0.465E-03    0.240E-02
RMM:  15    -0.381494233859E+03    0.23447E-05   -0.88444E-06  3891   0.382E-03    0.737E-03
RMM:  16    -0.381494234966E+03   -0.11066E-05   -0.10470E-06  2130   0.149E-03    0.716E-03
RMM:  17    -0.381494236134E+03   -0.11683E-05   -0.52287E-07  2092   0.107E-03    0.539E-03
RMM:  18    -0.381494237428E+03   -0.12936E-05   -0.23338E-07  2091   0.740E-04    0.304E-03
RMM:  19    -0.381494238326E+03   -0.89833E-06   -0.47956E-08  1031   0.420E-04
   3 F= -.41566100E+03 E0= -.41532138E+03  d E =-.660741E-01
       N       E                     dE             d eps       ncg     rms          rms(c)
DAV:   1    -0.381432130635E+03    0.62107E-01   -0.32011E+01  3920   0.763E+00    0.901E-01
RMM:   2    -0.381563892218E+03   -0.13176E+00   -0.49213E-01  3941   0.120E+00    0.324E+00
RMM:   3    -0.381483902351E+03    0.79990E-01   -0.40600E-02  3993   0.273E-01    0.104E+00
RMM:   4    -0.381481034635E+03    0.28677E-02   -0.13188E-02  3946   0.149E-01    0.112E+00
RMM:   5    -0.381474842295E+03    0.61923E-02   -0.59479E-03  3945   0.993E-02    0.814E-01
RMM:   6    -0.381472671593E+03    0.21707E-02   -0.52419E-03  3942   0.919E-02    0.599E-01
RMM:   7    -0.381473384834E+03   -0.71324E-03   -0.53516E-03  3941   0.918E-02    0.672E-01
RMM:   8    -0.381471285566E+03    0.20993E-02   -0.25013E-03  3945   0.643E-02    0.373E-01
RMM:   9    -0.381470600867E+03    0.68470E-03   -0.74001E-04  3939   0.350E-02    0.225E-01
RMM:  10    -0.381470258224E+03    0.34264E-03   -0.23394E-04  3937   0.199E-02    0.129E-01
RMM:  11    -0.381470138760E+03    0.11946E-03   -0.11053E-04  3937   0.125E-02    0.684E-02
RMM:  12    -0.381470108027E+03    0.30733E-04   -0.57871E-05  3940   0.948E-03    0.473E-02
RMM:  13    -0.381470101051E+03    0.69760E-05   -0.22801E-05  3921   0.608E-03    0.370E-02
RMM:  14    -0.381470096279E+03    0.47716E-05   -0.12423E-05  3904   0.443E-03    0.231E-02
RMM:  15    -0.381470091984E+03    0.42952E-05   -0.73415E-06  3820   0.353E-03    0.788E-03
RMM:  16    -0.381470092136E+03   -0.15246E-06   -0.83599E-07  2099   0.134E-03
   4 F= -.41571393E+03 E0= -.41537526E+03  d E =-.529253E-01
       N       E                     dE             d eps       ncg     rms          rms(c)
DAV:   1    -0.381165741591E+03    0.30435E+00   -0.16460E+02  3920   0.175E+01    0.214E+00
RMM:   2    -0.382000662849E+03   -0.83492E+00   -0.26949E+00  3946   0.277E+00    0.840E+00
RMM:   3    -0.381431161510E+03    0.56950E+00   -0.22509E-01  4005   0.641E-01    0.207E+00
RMM:   4    -0.381440054232E+03   -0.88927E-02   -0.76575E-02  3946   0.357E-01    0.289E+00
RMM:   5    -0.381396555188E+03    0.43499E-01   -0.30552E-02  3947   0.226E-01    0.191E+00
RMM:   6    -0.381385626920E+03    0.10928E-01   -0.24574E-02  3942   0.201E-01    0.149E+00
RMM:   7    -0.381388693109E+03   -0.30662E-02   -0.27553E-02  3943   0.208E-01    0.161E+00
RMM:   8    -0.381375211929E+03    0.13481E-01   -0.12646E-02  3945   0.144E-01    0.799E-01
RMM:   9    -0.381371850727E+03    0.33612E-02   -0.36650E-03  3942   0.773E-02    0.468E-01
RMM:  10    -0.381370461310E+03    0.13894E-02   -0.11196E-03  3937   0.436E-02    0.282E-01
RMM:  11    -0.381369885731E+03    0.57558E-03   -0.52838E-04  3943   0.273E-02    0.149E-01
RMM:  12    -0.381369736933E+03    0.14880E-03   -0.24084E-04  3943   0.194E-02    0.970E-02
RMM:  13    -0.381369691822E+03    0.45111E-04   -0.10804E-04  3939   0.133E-02    0.649E-02
RMM:  14    -0.381369685748E+03    0.60744E-05   -0.68901E-05  3938   0.104E-02    0.509E-02
RMM:  15    -0.381369669565E+03    0.16182E-04   -0.31655E-05  3924   0.737E-03    0.353E-02
RMM:  16    -0.381369663790E+03    0.57750E-05   -0.61293E-06  3485   0.328E-03    0.151E-02
RMM:  17    -0.381369664032E+03   -0.24216E-06   -0.24911E-06  2281   0.220E-03
   5 F= -.41578893E+03 E0= -.41545364E+03  d E =-.750060E-01
       N       E                     dE             d eps       ncg     rms          rms(c)
DAV:   1    -0.381285812528E+03    0.83851E-01   -0.23104E+01  3920   0.667E+00    0.836E-01
RMM:   2    -0.381403299667E+03   -0.11749E+00   -0.40042E-01  3949   0.104E+00    0.313E+00
RMM:   3    -0.381323345211E+03    0.79954E-01   -0.30855E-02  4002   0.238E-01    0.671E-01
RMM:   4    -0.381328363977E+03   -0.50188E-02   -0.11461E-02  3943   0.137E-01    0.122E+00
RMM:   5    -0.381320387866E+03    0.79761E-02   -0.41280E-03  3946   0.835E-02    0.744E-01
RMM:   6    -0.381319074533E+03    0.13133E-02   -0.34975E-03  3943   0.756E-02    0.609E-01
RMM:   7    -0.381319258006E+03   -0.18347E-03   -0.39573E-03  3943   0.793E-02    0.615E-01
RMM:   8    -0.381317291631E+03    0.19664E-02   -0.17616E-03  3943   0.536E-02    0.308E-01
RMM:   9    -0.381316796022E+03    0.49561E-03   -0.50599E-04  3940   0.286E-02    0.179E-01
RMM:  10    -0.381316587810E+03    0.20821E-03   -0.15826E-04  3938   0.164E-02    0.106E-01
RMM:  11    -0.381316507364E+03    0.80446E-04   -0.77423E-05  3940   0.104E-02    0.552E-02
RMM:  12    -0.381316489401E+03    0.17962E-04   -0.42118E-05  3934   0.808E-03    0.398E-02
RMM:  13    -0.381316485442E+03    0.39596E-05   -0.17545E-05  3922   0.535E-03    0.318E-02
RMM:  14    -0.381316482348E+03    0.30935E-05   -0.86862E-06  3868   0.376E-03    0.186E-02
RMM:  15    -0.381316479500E+03    0.28479E-05   -0.35722E-06  2682   0.259E-03    0.582E-03
RMM:  16    -0.381316479584E+03   -0.84132E-07   -0.70084E-07  2083   0.128E-03
   6 F= -.41580112E+03 E0= -.41546747E+03  d E =-.121852E-01
       N       E                     dE             d eps       ncg     rms          rms(c)
DAV:   1    -0.381271859074E+03    0.44620E-01   -0.76203E+00  3920   0.392E+00    0.506E-01
RMM:   2    -0.381310354627E+03   -0.38496E-01   -0.14207E-01  3951   0.607E-01    0.177E+00
RMM:   3    -0.381284842705E+03    0.25512E-01   -0.10240E-02  4003   0.137E-01    0.365E-01
RMM:   4    -0.381287241722E+03   -0.23990E-02   -0.40153E-03  3942   0.807E-02    0.752E-01
RMM:   5    -0.381284277375E+03    0.29643E-02   -0.13169E-03  3946   0.475E-02    0.458E-01
RMM:   6    -0.381283821723E+03    0.45565E-03   -0.11793E-03  3944   0.439E-02    0.379E-01
RMM:   7    -0.381283752331E+03    0.69392E-04   -0.13085E-03  3943   0.457E-02    0.356E-01
RMM:   8    -0.381283099802E+03    0.65253E-03   -0.57424E-04  3944   0.305E-02    0.178E-01
RMM:   9    -0.381282936400E+03    0.16340E-03   -0.17407E-04  3940   0.167E-02    0.102E-01
RMM:  10    -0.381282870157E+03    0.66244E-04   -0.51437E-05  3935   0.932E-03    0.600E-02
RMM:  11    -0.381282845161E+03    0.24996E-04   -0.25223E-05  3926   0.594E-03    0.323E-02
RMM:  12    -0.381282839150E+03    0.60110E-05   -0.15256E-05  3919   0.489E-03    0.233E-02
RMM:  13    -0.381282838504E+03    0.64578E-06   -0.60746E-06  3540   0.317E-03
   7 F= -.41580430E+03 E0= -.41547167E+03  d E =-.318552E-02
       N       E                     dE             d eps       ncg     rms          rms(c)
DAV:   1    -0.381271879889E+03    0.10959E-01   -0.78491E-01  3936   0.133E+00    0.184E-01
RMM:   2    -0.381276229241E+03   -0.43494E-02   -0.17572E-02  3953   0.200E-01    0.582E-01
RMM:   3    -0.381273424894E+03    0.28043E-02   -0.11573E-03  3986   0.454E-02    0.124E-01
RMM:   4    -0.381273714169E+03   -0.28928E-03   -0.46125E-04  3937   0.272E-02    0.247E-01
RMM:   5    -0.381273423756E+03    0.29041E-03   -0.13925E-04  3948   0.156E-02    0.161E-01
RMM:   6    -0.381273374157E+03    0.49599E-04   -0.12660E-04  3940   0.143E-02    0.135E-01
RMM:   7    -0.381273329117E+03    0.45040E-04   -0.12511E-04  3940   0.142E-02    0.103E-01
RMM:   8    -0.381273285114E+03    0.44003E-04   -0.56536E-05  3938   0.948E-03    0.634E-02
RMM:   9    -0.381273264367E+03    0.20747E-04   -0.20234E-05  3917   0.576E-03    0.284E-02
RMM:  10    -0.381273259157E+03    0.52103E-05   -0.47949E-06  3050   0.289E-03    0.161E-02
RMM:  11    -0.381273257735E+03    0.14224E-05   -0.18888E-06  2191   0.180E-03    0.101E-02
RMM:  12    -0.381273257227E+03    0.50772E-06   -0.17520E-06  2125   0.190E-03
   8 F= -.41580521E+03 E0= -.41547286E+03  d E =-.910367E-03
       N       E                     dE             d eps       ncg     rms          rms(c)
DAV:   1    -0.381265280036E+03    0.79777E-02   -0.64286E-01  3920   0.125E+00    0.174E-01
RMM:   2    -0.381267988716E+03   -0.27087E-02   -0.15737E-02  3953   0.181E-01    0.405E-01
RMM:   3    -0.381267049092E+03    0.93962E-03   -0.10486E-03  3986   0.419E-02    0.231E-01
RMM:   4    -0.381266883183E+03    0.16591E-03   -0.47550E-04  3935   0.270E-02    0.218E-01
RMM:   5    -0.381266655796E+03    0.22739E-03   -0.13325E-04  3938   0.152E-02    0.143E-01
RMM:   6    -0.381266584552E+03    0.71244E-04   -0.10072E-04  3934   0.128E-02    0.989E-02
RMM:   7    -0.381266563555E+03    0.20998E-04   -0.89130E-05  3937   0.120E-02    0.775E-02
RMM:   8    -0.381266545458E+03    0.18097E-04   -0.37504E-05  3926   0.776E-03    0.582E-02
RMM:   9    -0.381266529858E+03    0.15600E-04   -0.13751E-05  3916   0.477E-03    0.281E-02
RMM:  10    -0.381266524880E+03    0.49773E-05   -0.38302E-06  2762   0.259E-03    0.123E-02
RMM:  11    -0.381266523994E+03    0.88650E-06   -0.13612E-06  2112   0.157E-03
   9 F= -.41580620E+03 E0= -.41547402E+03  d E =-.988673E-03
       N       E                     dE             d eps       ncg     rms          rms(c)
DAV:   1    -0.381268996839E+03   -0.24720E-02   -0.25527E-01  3920   0.755E-01    0.896E-02
RMM:   2    -0.381269766334E+03   -0.76949E-03   -0.54202E-03  3949   0.112E-01    0.192E-01
RMM:   3    -0.381269888762E+03   -0.12243E-03   -0.43909E-04  3989   0.268E-02    0.226E-01
RMM:   4    -0.381269522911E+03    0.36585E-03   -0.16486E-04  3939   0.159E-02    0.115E-01
RMM:   5    -0.381269452456E+03    0.70455E-04   -0.70906E-05  3938   0.108E-02    0.668E-02
RMM:   6    -0.381269444041E+03    0.84152E-05   -0.32434E-05  3928   0.723E-03    0.558E-02
RMM:   7    -0.381269435631E+03    0.84097E-05   -0.27164E-05  3931   0.675E-03    0.412E-02
RMM:   8    -0.381269431972E+03    0.36590E-05   -0.21860E-05  3920   0.602E-03    0.335E-02
RMM:   9    -0.381269425345E+03    0.66270E-05   -0.85289E-06  3881   0.381E-03    0.145E-02
RMM:  10    -0.381269424012E+03    0.13329E-05   -0.15211E-06  2058   0.176E-03    0.741E-03
RMM:  11    -0.381269423644E+03    0.36773E-06   -0.59857E-07  2022   0.109E-03
  10 F= -.41580718E+03 E0= -.41547488E+03  d E =-.976645E-03
       N       E                     dE             d eps       ncg     rms          rms(c)
DAV:   1    -0.381268949461E+03    0.47455E-03   -0.14483E+00  3920   0.187E+00    0.233E-01
RMM:   2    -0.381272861926E+03   -0.39125E-02   -0.34117E-02  3952   0.269E-01    0.336E-01
RMM:   3    -0.381277147804E+03   -0.42859E-02   -0.30482E-03  3984   0.688E-02    0.788E-01
RMM:   4    -0.381272301090E+03    0.48467E-02   -0.11813E-03  3935   0.413E-02    0.297E-01
RMM:   5    -0.381271877982E+03    0.42311E-03   -0.44375E-04  3943   0.269E-02    0.176E-01
RMM:   6    -0.381271767968E+03    0.11001E-03   -0.19076E-04  3937   0.174E-02    0.119E-01
RMM:   7    -0.381271715976E+03    0.51992E-04   -0.13957E-04  3938   0.153E-02    0.788E-02
RMM:   8    -0.381271723615E+03   -0.76390E-05   -0.11030E-04  3945   0.135E-02    0.826E-02
RMM:   9    -0.381271684899E+03    0.38716E-04   -0.46838E-05  3929   0.890E-03    0.298E-02
RMM:  10    -0.381271678720E+03    0.61788E-05   -0.95256E-06  3905   0.411E-03    0.145E-02
RMM:  11    -0.381271677743E+03    0.97662E-06   -0.19967E-06  2185   0.194E-03
  11 F= -.41580897E+03 E0= -.41547651E+03  d E =-.179187E-02
       N       E                     dE             d eps       ncg     rms          rms(c)
DAV:   1    -0.381272210345E+03   -0.53163E-03   -0.40249E-01  3920   0.983E-01    0.120E-01
RMM:   2    -0.381273314292E+03   -0.11039E-02   -0.94466E-03  3953   0.142E-01    0.182E-01
RMM:   3    -0.381274374745E+03   -0.10605E-02   -0.82273E-04  3986   0.358E-02    0.398E-01
RMM:   4    -0.381273143662E+03    0.12311E-02   -0.31879E-04  3937   0.215E-02    0.160E-01
RMM:   5    -0.381273011597E+03    0.13207E-03   -0.11102E-04  3945   0.135E-02    0.803E-02
RMM:   6    -0.381272993095E+03    0.18502E-04   -0.48088E-05  3935   0.877E-03    0.607E-02
RMM:   7    -0.381272981044E+03    0.12051E-04   -0.36833E-05  3929   0.787E-03    0.418E-02
RMM:   8    -0.381272981095E+03   -0.50553E-07   -0.29970E-05  3939   0.706E-03    0.388E-02
RMM:   9    -0.381272971933E+03    0.91612E-05   -0.11759E-05  3905   0.448E-03    0.142E-02
RMM:  10    -0.381272970664E+03    0.12688E-05   -0.17844E-06  2103   0.190E-03    0.704E-03
RMM:  11    -0.381272970498E+03    0.16681E-06   -0.61244E-07  2049   0.112E-03
  12 F= -.41580973E+03 E0= -.41547715E+03  d E =-.756980E-03
       N       E                     dE             d eps       ncg     rms          rms(c)
DAV:   1    -0.381273624445E+03   -0.65378E-03   -0.15313E-01  3920   0.600E-01    0.698E-02
RMM:   2    -0.381274065705E+03   -0.44126E-03   -0.34611E-03  3949   0.871E-02    0.126E-01
RMM:   3    -0.381274312140E+03   -0.24644E-03   -0.29254E-04  3999   0.215E-02    0.213E-01
RMM:   4    -0.381273963282E+03    0.34886E-03   -0.10384E-04  3937   0.126E-02    0.964E-02
RMM:   5    -0.381273914278E+03    0.49004E-04   -0.32986E-05  3940   0.748E-03    0.398E-02
RMM:   6    -0.381273910459E+03    0.38195E-05   -0.15067E-05  3911   0.493E-03    0.314E-02
RMM:   7    -0.381273908424E+03    0.20348E-05   -0.13880E-05  3910   0.484E-03    0.260E-02
RMM:   8    -0.381273908299E+03    0.12493E-06   -0.10819E-05  3913   0.423E-03    0.245E-02
RMM:   9    -0.381273904762E+03    0.35367E-05   -0.38894E-06  2732   0.266E-03    0.861E-03
RMM:  10    -0.381273904364E+03    0.39896E-06   -0.83089E-07  2038   0.137E-03
  13 F= -.41581018E+03 E0= -.41547752E+03  d E =-.454263E-03
       N       E                     dE             d eps       ncg     rms          rms(c)
DAV:   1    -0.381274330055E+03   -0.42529E-03   -0.73038E-01  3920   0.131E+00    0.148E-01
RMM:   2    -0.381276354557E+03   -0.20245E-02   -0.16250E-02  3950   0.190E-01    0.267E-01
RMM:   3    -0.381277517942E+03   -0.11634E-02   -0.13597E-03  4002   0.466E-02    0.457E-01
RMM:   4    -0.381275942093E+03    0.15758E-02   -0.49494E-04  3938   0.272E-02    0.213E-01
RMM:   5    -0.381275691015E+03    0.25108E-03   -0.16349E-04  3946   0.166E-02    0.888E-02
RMM:   6    -0.381275670510E+03    0.20505E-04   -0.65823E-05  3931   0.103E-02    0.675E-02
RMM:   7    -0.381275661523E+03    0.89868E-05   -0.63875E-05  3935   0.104E-02    0.569E-02
RMM:   8    -0.381275663942E+03   -0.24188E-05   -0.54196E-05  3940   0.940E-03    0.573E-02
RMM:   9    -0.381275644798E+03    0.19144E-04   -0.21981E-05  3920   0.608E-03    0.195E-02
RMM:  10    -0.381275642351E+03    0.24472E-05   -0.36972E-06  2717   0.266E-03    0.109E-02
RMM:  11    -0.381275641819E+03    0.53205E-06   -0.10397E-06  2059   0.143E-03
  14 F= -.41581099E+03 E0= -.41547817E+03  d E =-.806974E-03
       N       E                     dE             d eps       ncg     rms          rms(c)
DAV:   1    -0.381276022593E+03   -0.38024E-03   -0.15445E-01  3920   0.591E-01    0.648E-02
RMM:   2    -0.381276462508E+03   -0.43992E-03   -0.33029E-03  3950   0.868E-02    0.130E-01
RMM:   3    -0.381276604083E+03   -0.14157E-03   -0.27307E-04  4007   0.210E-02    0.187E-01
RMM:   4    -0.381276330903E+03    0.27318E-03   -0.89524E-05  3940   0.119E-02    0.778E-02
RMM:   5    -0.381276300500E+03    0.30403E-04   -0.26890E-05  3937   0.679E-03    0.378E-02
RMM:   6    -0.381276297621E+03    0.28787E-05   -0.12695E-05  3901   0.453E-03    0.321E-02
RMM:   7    -0.381276296431E+03    0.11898E-05   -0.13000E-05  3904   0.464E-03    0.295E-02
RMM:   8    -0.381276294650E+03    0.17815E-05   -0.11647E-05  3909   0.438E-03    0.230E-02
RMM:   9    -0.381276291856E+03    0.27940E-05   -0.45350E-06  2989   0.284E-03    0.104E-02
RMM:  10    -0.381276291184E+03    0.67164E-06   -0.96021E-07  2033   0.146E-03
  15 F= -.41581130E+03 E0= -.41547838E+03  d E =-.308347E-03
       N       E                     dE             d eps       ncg     rms          rms(c)
DAV:   1    -0.381276579934E+03   -0.28808E-03   -0.11635E-01  3920   0.506E-01    0.528E-02
RMM:   2    -0.381276858052E+03   -0.27812E-03   -0.23592E-03  3948   0.746E-02    0.899E-02
RMM:   3    -0.381277025307E+03   -0.16726E-03   -0.19432E-04  4008   0.178E-02    0.167E-01
RMM:   4    -0.381276804981E+03    0.22033E-03   -0.65284E-05  3946   0.996E-03    0.678E-02
RMM:   5    -0.381276780671E+03    0.24310E-04   -0.20032E-05  3937   0.584E-03    0.308E-02
RMM:   6    -0.381276778840E+03    0.18301E-05   -0.90506E-06  3869   0.382E-03    0.282E-02
RMM:   7    -0.381276777273E+03    0.15671E-05   -0.89498E-06  3870   0.386E-03    0.247E-02
RMM:   8    -0.381276776993E+03    0.28066E-06   -0.88480E-06  3885   0.381E-03
  16 F= -.41581154E+03 E0= -.41547854E+03  d E =-.239854E-03
