./PtORR/md/O2_neb/refer/lammps.data (written by ASE) 

3074 	 atoms 
2  atom types
0.0       38.69394839813112  xlo xhi
0.0      44.679925159782847  ylo yhi
0.0                      60  zlo zhi

Masses 

  1      16.00 # O
  2     195.08 # Pt

Atoms # charge 

     1   2   0.0                       0                       0                       0
     2   2   0.0      3.2244944100459798                       0      2.2789979999999996
     3   2   0.0        1.61224913972041                       0      4.5579900000000002
     4   2   0.0       2.418371774883195       1.396247661243214                       0
     5   2   0.0     0.80612263516278504       1.396247661243214      2.2789979999999996
     6   2   0.0      4.0306325227881246       1.396247661243214      4.5579900000000002
     7   2   0.0                       0                       0      6.8369999999999997
     8   2   0.0      3.2244944100459798                       0      9.1159800000000004
     9   2   0.0        1.61224913972041                       0      11.394959999999999
    10   2   0.0       2.418371774883195       1.396247661243214      6.8369999999999997
    11   2   0.0     0.80612263516278504       1.396247661243214      9.1159800000000004
    12   2   0.0      4.0306325227881246       1.396247661243214      11.394959999999999
    13   2   0.0                       0                       0      13.673999999999999
    14   2   0.0      3.2244944100459798                       0      15.952979999999998
    15   2   0.0        1.61224913972041                       0      18.231960000000001
    16   2   0.0       2.418371774883195       1.396247661243214      13.673999999999999
    17   2   0.0     0.80612263516278504       1.396247661243214      15.952979999999998
    18   2   0.0      4.0306325227881246       1.396247661243214      18.231960000000001
    19   2   0.0                       0                       0      20.510940000000002
    20   2   0.0      3.2244944100459798                       0                22.78998
    21   2   0.0        1.61224913972041                       0      25.068960000000001
    22   2   0.0       2.418371774883195       1.396247661243214      20.510940000000002
    23   2   0.0     0.80612263516278504       1.396247661243214                22.78998
    24   2   0.0      4.0306325227881246       1.396247661243214      25.068960000000001
    25   2   0.0                       0       2.792495322486428                       0
    26   2   0.0      3.2244944100459798       2.792495322486428      2.2789979999999996
    27   2   0.0        1.61224913972041       2.792495322486428      4.5579900000000002
    28   2   0.0       2.418371774883195      4.1887429837296422                       0
    29   2   0.0     0.80612263516278504      4.1887429837296422      2.2789979999999996
    30   2   0.0      4.0306325227881246      4.1887429837296422      4.5579900000000002
    31   2   0.0                       0       2.792495322486428      6.8369999999999997
    32   2   0.0      3.2244944100459798       2.792495322486428      9.1159800000000004
    33   2   0.0        1.61224913972041       2.792495322486428      11.394959999999999
    34   2   0.0       2.418371774883195      4.1887429837296422      6.8369999999999997
    35   2   0.0     0.80612263516278504      4.1887429837296422      9.1159800000000004
    36   2   0.0      4.0306325227881246      4.1887429837296422      11.394959999999999
    37   2   0.0                       0       2.792495322486428      13.673999999999999
    38   2   0.0      3.2244944100459798       2.792495322486428      15.952979999999998
    39   2   0.0        1.61224913972041       2.792495322486428      18.231960000000001
    40   2   0.0       2.418371774883195      4.1887429837296422      13.673999999999999
    41   2   0.0     0.80612263516278504      4.1887429837296422      15.952979999999998
    42   2   0.0      4.0306325227881246      4.1887429837296422      18.231960000000001
    43   2   0.0                       0       2.792495322486428      20.510940000000002
    44   2   0.0      3.2244944100459798       2.792495322486428                22.78998
    45   2   0.0        1.61224913972041       2.792495322486428      25.068960000000001
    46   2   0.0       2.418371774883195      4.1887429837296422      20.510940000000002
    47   2   0.0     0.80612263516278504      4.1887429837296422                22.78998
    48   2   0.0      4.0306325227881246      4.1887429837296422      25.068960000000001
    49   2   0.0                       0      5.5849906449728559                       0
    50   2   0.0      3.2244944100459798      5.5849906449728559      2.2789979999999996
    51   2   0.0        1.61224913972041      5.5849906449728559      4.5579900000000002
    52   2   0.0       2.418371774883195      6.9812383062160697                       0
    53   2   0.0     0.80612263516278504      6.9812383062160697      2.2789979999999996
    54   2   0.0      4.0306325227881246      6.9812383062160697      4.5579900000000002
    55   2   0.0                       0      5.5849906449728559      6.8369999999999997
    56   2   0.0      3.2244944100459798      5.5849906449728559      9.1159800000000004
    57   2   0.0        1.61224913972041      5.5849906449728559      11.394959999999999
    58   2   0.0       2.418371774883195      6.9812383062160697      6.8369999999999997
    59   2   0.0     0.80612263516278504      6.9812383062160697      9.1159800000000004
    60   2   0.0      4.0306325227881246      6.9812383062160697      11.394959999999999
    61   2   0.0                       0      5.5849906449728559      13.673999999999999
    62   2   0.0      3.2244944100459798      5.5849906449728559      15.952979999999998
    63   2   0.0        1.61224913972041      5.5849906449728559      18.231960000000001
    64   2   0.0       2.418371774883195      6.9812383062160697      13.673999999999999
    65   2   0.0     0.80612263516278504      6.9812383062160697      15.952979999999998
    66   2   0.0      4.0306325227881246      6.9812383062160697      18.231960000000001
    67   2   0.0                       0      5.5849906449728559      20.510940000000002
    68   2   0.0      3.2244944100459798      5.5849906449728559                22.78998
    69   2   0.0        1.61224913972041      5.5849906449728559      25.068960000000001
    70   2   0.0       2.418371774883195      6.9812383062160697      20.510940000000002
    71   2   0.0     0.80612263516278504      6.9812383062160697                22.78998
    72   2   0.0      4.0306325227881246      6.9812383062160697      25.068960000000001
    73   2   0.0                       0      8.3774859674592843                       0
    74   2   0.0      3.2244944100459798      8.3774859674592843      2.2789979999999996
    75   2   0.0        1.61224913972041      8.3774859674592843      4.5579900000000002
    76   2   0.0       2.418371774883195      9.7737336287024981                       0
    77   2   0.0     0.80612263516278504      9.7737336287024981      2.2789979999999996
    78   2   0.0      4.0306325227881246      9.7737336287024981      4.5579900000000002
    79   2   0.0                       0      8.3774859674592843      6.8369999999999997
    80   2   0.0      3.2244944100459798      8.3774859674592843      9.1159800000000004
    81   2   0.0        1.61224913972041      8.3774859674592843      11.394959999999999
    82   2   0.0       2.418371774883195      9.7737336287024981      6.8369999999999997
    83   2   0.0     0.80612263516278504      9.7737336287024981      9.1159800000000004
    84   2   0.0      4.0306325227881246      9.7737336287024981      11.394959999999999
    85   2   0.0                       0      8.3774859674592843      13.673999999999999
    86   2   0.0      3.2244944100459798      8.3774859674592843      15.952979999999998
    87   2   0.0        1.61224913972041      8.3774859674592843      18.231960000000001
    88   2   0.0       2.418371774883195      9.7737336287024981      13.673999999999999
    89   2   0.0     0.80612263516278504      9.7737336287024981      15.952979999999998
    90   2   0.0      4.0306325227881246      9.7737336287024981      18.231960000000001
    91   2   0.0                       0      8.3774859674592843      20.510940000000002
    92   2   0.0      3.2244944100459798      8.3774859674592843                22.78998
    93   2   0.0        1.61224913972041      8.3774859674592843      25.068960000000001
    94   2   0.0       2.418371774883195      9.7737336287024981      20.510940000000002
    95   2   0.0     0.80612263516278504      9.7737336287024981                22.78998
    96   2   0.0      4.0306325227881246      9.7737336287024981      25.068960000000001
    97   2   0.0                       0      11.169981289945712                       0
    98   2   0.0      3.2244944100459798      11.169981289945712      2.2789979999999996
    99   2   0.0        1.61224913972041      11.169981289945712      4.5579900000000002
   100   2   0.0       2.418371774883195      12.566228951188926                       0
   101   2   0.0     0.80612263516278504      12.566228951188926      2.2789979999999996
   102   2   0.0      4.0306325227881246      12.566228951188926      4.5579900000000002
   103   2   0.0                       0      11.169981289945712      6.8369999999999997
   104   2   0.0      3.2244944100459798      11.169981289945712      9.1159800000000004
   105   2   0.0        1.61224913972041      11.169981289945712      11.394959999999999
   106   2   0.0       2.418371774883195      12.566228951188926      6.8369999999999997
   107   2   0.0     0.80612263516278504      12.566228951188926      9.1159800000000004
   108   2   0.0      4.0306325227881246      12.566228951188926      11.394959999999999
   109   2   0.0                       0      11.169981289945712      13.673999999999999
   110   2   0.0      3.2244944100459798      11.169981289945712      15.952979999999998
   111   2   0.0        1.61224913972041      11.169981289945712      18.231960000000001
   112   2   0.0       2.418371774883195      12.566228951188926      13.673999999999999
   113   2   0.0     0.80612263516278504      12.566228951188926      15.952979999999998
   114   2   0.0      4.0306325227881246      12.566228951188926      18.231960000000001
   115   2   0.0                       0      11.169981289945712      20.510940000000002
   116   2   0.0      3.2244944100459798      11.169981289945712                22.78998
   117   2   0.0        1.61224913972041      11.169981289945712      25.068960000000001
   118   2   0.0       2.418371774883195      12.566228951188926      20.510940000000002
   119   2   0.0     0.80612263516278504      12.566228951188926                22.78998
   120   2   0.0      4.0306325227881246      12.566228951188926      25.068960000000001
   121   2   0.0                       0      13.962476612432139                       0
   122   2   0.0      3.2244944100459798      13.962476612432139      2.2789979999999996
   123   2   0.0        1.61224913972041      13.962476612432139      4.5579900000000002
   124   2   0.0       2.418371774883195      15.358724273675353                       0
   125   2   0.0     0.80612263516278504      15.358724273675353      2.2789979999999996
   126   2   0.0      4.0306325227881246      15.358724273675353      4.5579900000000002
   127   2   0.0                       0      13.962476612432139      6.8369999999999997
   128   2   0.0      3.2244944100459798      13.962476612432139      9.1159800000000004
   129   2   0.0        1.61224913972041      13.962476612432139      11.394959999999999
   130   2   0.0       2.418371774883195      15.358724273675353      6.8369999999999997
   131   2   0.0     0.80612263516278504      15.358724273675353      9.1159800000000004
   132   2   0.0      4.0306325227881246      15.358724273675353      11.394959999999999
   133   2   0.0                       0      13.962476612432139      13.673999999999999
   134   2   0.0      3.2244944100459798      13.962476612432139      15.952979999999998
   135   2   0.0        1.61224913972041      13.962476612432139      18.231960000000001
   136   2   0.0       2.418371774883195      15.358724273675353      13.673999999999999
   137   2   0.0     0.80612263516278504      15.358724273675353      15.952979999999998
   138   2   0.0      4.0306325227881246      15.358724273675353      18.231960000000001
   139   2   0.0                       0      13.962476612432139      20.510940000000002
   140   2   0.0      3.2244944100459798      13.962476612432139                22.78998
   141   2   0.0        1.61224913972041      13.962476612432139      25.068960000000001
   142   2   0.0       2.418371774883195      15.358724273675353      20.510940000000002
   143   2   0.0     0.80612263516278504      15.358724273675353                22.78998
   144   2   0.0      4.0306325227881246      15.358724273675353      25.068960000000001
   145   2   0.0                       0      16.754971934918569                       0
   146   2   0.0      3.2244944100459798      16.754971934918569      2.2789979999999996
   147   2   0.0        1.61224913972041      16.754971934918569      4.5579900000000002
   148   2   0.0       2.418371774883195      18.151219596161781                       0
   149   2   0.0     0.80612263516278504      18.151219596161781      2.2789979999999996
   150   2   0.0      4.0306325227881246      18.151219596161781      4.5579900000000002
   151   2   0.0                       0      16.754971934918569      6.8369999999999997
   152   2   0.0      3.2244944100459798      16.754971934918569      9.1159800000000004
   153   2   0.0        1.61224913972041      16.754971934918569      11.394959999999999
   154   2   0.0       2.418371774883195      18.151219596161781      6.8369999999999997
   155   2   0.0     0.80612263516278504      18.151219596161781      9.1159800000000004
   156   2   0.0      4.0306325227881246      18.151219596161781      11.394959999999999
   157   2   0.0                       0      16.754971934918569      13.673999999999999
   158   2   0.0      3.2244944100459798      16.754971934918569      15.952979999999998
   159   2   0.0        1.61224913972041      16.754971934918569      18.231960000000001
   160   2   0.0       2.418371774883195      18.151219596161781      13.673999999999999
   161   2   0.0     0.80612263516278504      18.151219596161781      15.952979999999998
   162   2   0.0      4.0306325227881246      18.151219596161781      18.231960000000001
   163   2   0.0                       0      16.754971934918569      20.510940000000002
   164   2   0.0      3.2244944100459798      16.754971934918569                22.78998
   165   2   0.0        1.61224913972041      16.754971934918569      25.068960000000001
   166   2   0.0       2.418371774883195      18.151219596161781      20.510940000000002
   167   2   0.0     0.80612263516278504      18.151219596161781                22.78998
   168   2   0.0      4.0306325227881246      18.151219596161781      25.068960000000001
   169   2   0.0                       0      19.547467257404996                       0
   170   2   0.0      3.2244944100459798      19.547467257404996      2.2789979999999996
   171   2   0.0        1.61224913972041      19.547467257404996      4.5579900000000002
   172   2   0.0       2.418371774883195      20.943714918648208                       0
   173   2   0.0     0.80612263516278504      20.943714918648208      2.2789979999999996
   174   2   0.0      4.0306325227881246      20.943714918648208      4.5579900000000002
   175   2   0.0                       0      19.547467257404996      6.8369999999999997
   176   2   0.0      3.2244944100459798      19.547467257404996      9.1159800000000004
   177   2   0.0        1.61224913972041      19.547467257404996      11.394959999999999
   178   2   0.0       2.418371774883195      20.943714918648208      6.8369999999999997
   179   2   0.0     0.80612263516278504      20.943714918648208      9.1159800000000004
   180   2   0.0      4.0306325227881246      20.943714918648208      11.394959999999999
   181   2   0.0                       0      19.547467257404996      13.673999999999999
   182   2   0.0      3.2244944100459798      19.547467257404996      15.952979999999998
   183   2   0.0        1.61224913972041      19.547467257404996      18.231960000000001
   184   2   0.0       2.418371774883195      20.943714918648208      13.673999999999999
   185   2   0.0     0.80612263516278504      20.943714918648208      15.952979999999998
   186   2   0.0      4.0306325227881246      20.943714918648208      18.231960000000001
   187   2   0.0                       0      19.547467257404996      20.510940000000002
   188   2   0.0      3.2244944100459798      19.547467257404996                22.78998
   189   2   0.0        1.61224913972041      19.547467257404996      25.068960000000001
   190   2   0.0       2.418371774883195      20.943714918648208      20.510940000000002
   191   2   0.0     0.80612263516278504      20.943714918648208                22.78998
   192   2   0.0      4.0306325227881246      20.943714918648208      25.068960000000001
   193   2   0.0                       0      22.339962579891424                       0
   194   2   0.0      3.2244944100459798      22.339962579891424      2.2789979999999996
   195   2   0.0        1.61224913972041      22.339962579891424      4.5579900000000002
   196   2   0.0       2.418371774883195      23.736210241134639                       0
   197   2   0.0     0.80612263516278504      23.736210241134639      2.2789979999999996
   198   2   0.0      4.0306325227881246      23.736210241134639      4.5579900000000002
   199   2   0.0                       0      22.339962579891424      6.8369999999999997
   200   2   0.0      3.2244944100459798      22.339962579891424      9.1159800000000004
   201   2   0.0        1.61224913972041      22.339962579891424      11.394959999999999
   202   2   0.0       2.418371774883195      23.736210241134639      6.8369999999999997
   203   2   0.0     0.80612263516278504      23.736210241134639      9.1159800000000004
   204   2   0.0      4.0306325227881246      23.736210241134639      11.394959999999999
   205   2   0.0                       0      22.339962579891424      13.673999999999999
   206   2   0.0      3.2244944100459798      22.339962579891424      15.952979999999998
   207   2   0.0        1.61224913972041      22.339962579891424      18.231960000000001
   208   2   0.0       2.418371774883195      23.736210241134639      13.673999999999999
   209   2   0.0     0.80612263516278504      23.736210241134639      15.952979999999998
   210   2   0.0      4.0306325227881246      23.736210241134639      18.231960000000001
   211   2   0.0                       0      22.339962579891424      20.510940000000002
   212   2   0.0      3.2244944100459798      22.339962579891424                22.78998
   213   2   0.0        1.61224913972041      22.339962579891424      25.068960000000001
   214   2   0.0       2.418371774883195      23.736210241134639      20.510940000000002
   215   2   0.0     0.80612263516278504      23.736210241134639                22.78998
   216   2   0.0      4.0306325227881246      23.736210241134639      25.068960000000001
   217   2   0.0                       0      25.132457902377851                       0
   218   2   0.0      3.2244944100459798      25.132457902377851      2.2789979999999996
   219   2   0.0        1.61224913972041      25.132457902377851      4.5579900000000002
   220   2   0.0       2.418371774883195      26.528705563621067                       0
   221   2   0.0     0.80612263516278504      26.528705563621067      2.2789979999999996
   222   2   0.0      4.0306325227881246      26.528705563621067      4.5579900000000002
   223   2   0.0                       0      25.132457902377851      6.8369999999999997
   224   2   0.0      3.2244944100459798      25.132457902377851      9.1159800000000004
   225   2   0.0        1.61224913972041      25.132457902377851      11.394959999999999
   226   2   0.0       2.418371774883195      26.528705563621067      6.8369999999999997
   227   2   0.0     0.80612263516278504      26.528705563621067      9.1159800000000004
   228   2   0.0      4.0306325227881246      26.528705563621067      11.394959999999999
   229   2   0.0                       0      25.132457902377851      13.673999999999999
   230   2   0.0      3.2244944100459798      25.132457902377851      15.952979999999998
   231   2   0.0        1.61224913972041      25.132457902377851      18.231960000000001
   232   2   0.0       2.418371774883195      26.528705563621067      13.673999999999999
   233   2   0.0     0.80612263516278504      26.528705563621067      15.952979999999998
   234   2   0.0      4.0306325227881246      26.528705563621067      18.231960000000001
   235   2   0.0                       0      25.132457902377851      20.510940000000002
   236   2   0.0      3.2244944100459798      25.132457902377851                22.78998
   237   2   0.0        1.61224913972041      25.132457902377851      25.068960000000001
   238   2   0.0       2.418371774883195      26.528705563621067      20.510940000000002
   239   2   0.0     0.80612263516278504      26.528705563621067                22.78998
   240   2   0.0      4.0306325227881246      26.528705563621067      25.068960000000001
   241   2   0.0                       0      27.924953224864279                       0
   242   2   0.0      3.2244944100459798      27.924953224864279      2.2789979999999996
   243   2   0.0        1.61224913972041      27.924953224864279      4.5579900000000002
   244   2   0.0       2.418371774883195      29.321200886107494                       0
   245   2   0.0     0.80612263516278504      29.321200886107494      2.2789979999999996
   246   2   0.0      4.0306325227881246      29.321200886107494      4.5579900000000002
   247   2   0.0                       0      27.924953224864279      6.8369999999999997
   248   2   0.0      3.2244944100459798      27.924953224864279      9.1159800000000004
   249   2   0.0        1.61224913972041      27.924953224864279      11.394959999999999
   250   2   0.0       2.418371774883195      29.321200886107494      6.8369999999999997
   251   2   0.0     0.80612263516278504      29.321200886107494      9.1159800000000004
   252   2   0.0      4.0306325227881246      29.321200886107494      11.394959999999999
   253   2   0.0                       0      27.924953224864279      13.673999999999999
   254   2   0.0      3.2244944100459798      27.924953224864279      15.952979999999998
   255   2   0.0        1.61224913972041      27.924953224864279      18.231960000000001
   256   2   0.0       2.418371774883195      29.321200886107494      13.673999999999999
   257   2   0.0     0.80612263516278504      29.321200886107494      15.952979999999998
   258   2   0.0      4.0306325227881246      29.321200886107494      18.231960000000001
   259   2   0.0                       0      27.924953224864279      20.510940000000002
   260   2   0.0      3.2244944100459798      27.924953224864279                22.78998
   261   2   0.0        1.61224913972041      27.924953224864279      25.068960000000001
   262   2   0.0       2.418371774883195      29.321200886107494      20.510940000000002
   263   2   0.0     0.80612263516278504      29.321200886107494                22.78998
   264   2   0.0      4.0306325227881246      29.321200886107494      25.068960000000001
   265   2   0.0                       0      30.717448547350706                       0
   266   2   0.0      3.2244944100459798      30.717448547350706      2.2789979999999996
   267   2   0.0        1.61224913972041      30.717448547350706      4.5579900000000002
   268   2   0.0       2.418371774883195      32.113696208593922                       0
   269   2   0.0     0.80612263516278504      32.113696208593922      2.2789979999999996
   270   2   0.0      4.0306325227881246      32.113696208593922      4.5579900000000002
   271   2   0.0                       0      30.717448547350706      6.8369999999999997
   272   2   0.0      3.2244944100459798      30.717448547350706      9.1159800000000004
   273   2   0.0        1.61224913972041      30.717448547350706      11.394959999999999
   274   2   0.0       2.418371774883195      32.113696208593922      6.8369999999999997
   275   2   0.0     0.80612263516278504      32.113696208593922      9.1159800000000004
   276   2   0.0      4.0306325227881246      32.113696208593922      11.394959999999999
   277   2   0.0                       0      30.717448547350706      13.673999999999999
   278   2   0.0      3.2244944100459798      30.717448547350706      15.952979999999998
   279   2   0.0        1.61224913972041      30.717448547350706      18.231960000000001
   280   2   0.0       2.418371774883195      32.113696208593922      13.673999999999999
   281   2   0.0     0.80612263516278504      32.113696208593922      15.952979999999998
   282   2   0.0      4.0306325227881246      32.113696208593922      18.231960000000001
   283   2   0.0                       0      30.717448547350706      20.510940000000002
   284   2   0.0      3.2244944100459798      30.717448547350706                22.78998
   285   2   0.0        1.61224913972041      30.717448547350706      25.068960000000001
   286   2   0.0       2.418371774883195      32.113696208593922      20.510940000000002
   287   2   0.0     0.80612263516278504      32.113696208593922                22.78998
   288   2   0.0      4.0306325227881246      32.113696208593922      25.068960000000001
   289   2   0.0                       0      33.509943869837137                       0
   290   2   0.0      3.2244944100459798      33.509943869837137      2.2789979999999996
   291   2   0.0        1.61224913972041      33.509943869837137      4.5579900000000002
   292   2   0.0       2.418371774883195      34.906191531080353                       0
   293   2   0.0     0.80612263516278504      34.906191531080353      2.2789979999999996
   294   2   0.0      4.0306325227881246      34.906191531080353      4.5579900000000002
   295   2   0.0                       0      33.509943869837137      6.8369999999999997
   296   2   0.0      3.2244944100459798      33.509943869837137      9.1159800000000004
   297   2   0.0        1.61224913972041      33.509943869837137      11.394959999999999
   298   2   0.0       2.418371774883195      34.906191531080353      6.8369999999999997
   299   2   0.0     0.80612263516278504      34.906191531080353      9.1159800000000004
   300   2   0.0      4.0306325227881246      34.906191531080353      11.394959999999999
   301   2   0.0                       0      33.509943869837137      13.673999999999999
   302   2   0.0      3.2244944100459798      33.509943869837137      15.952979999999998
   303   2   0.0        1.61224913972041      33.509943869837137      18.231960000000001
   304   2   0.0       2.418371774883195      34.906191531080353      13.673999999999999
   305   2   0.0     0.80612263516278504      34.906191531080353      15.952979999999998
   306   2   0.0      4.0306325227881246      34.906191531080353      18.231960000000001
   307   2   0.0                       0      33.509943869837137      20.510940000000002
   308   2   0.0      3.2244944100459798      33.509943869837137                22.78998
   309   2   0.0        1.61224913972041      33.509943869837137      25.068960000000001
   310   2   0.0       2.418371774883195      34.906191531080353      20.510940000000002
   311   2   0.0     0.80612263516278504      34.906191531080353                22.78998
   312   2   0.0      4.0306325227881246      34.906191531080353      25.068960000000001
   313   2   0.0                       0      36.302439192323561                       0
   314   2   0.0      3.2244944100459798      36.302439192323561      2.2789979999999996
   315   2   0.0        1.61224913972041      36.302439192323561      4.5579900000000002
   316   2   0.0       2.418371774883195      37.698686853566777                       0
   317   2   0.0     0.80612263516278504      37.698686853566777      2.2789979999999996
   318   2   0.0      4.0306325227881246      37.698686853566777      4.5579900000000002
   319   2   0.0                       0      36.302439192323561      6.8369999999999997
   320   2   0.0      3.2244944100459798      36.302439192323561      9.1159800000000004
   321   2   0.0        1.61224913972041      36.302439192323561      11.394959999999999
   322   2   0.0       2.418371774883195      37.698686853566777      6.8369999999999997
   323   2   0.0     0.80612263516278504      37.698686853566777      9.1159800000000004
   324   2   0.0      4.0306325227881246      37.698686853566777      11.394959999999999
   325   2   0.0                       0      36.302439192323561      13.673999999999999
   326   2   0.0      3.2244944100459798      36.302439192323561      15.952979999999998
   327   2   0.0        1.61224913972041      36.302439192323561      18.231960000000001
   328   2   0.0       2.418371774883195      37.698686853566777      13.673999999999999
   329   2   0.0     0.80612263516278504      37.698686853566777      15.952979999999998
   330   2   0.0      4.0306325227881246      37.698686853566777      18.231960000000001
   331   2   0.0                       0      36.302439192323561      20.510940000000002
   332   2   0.0      3.2244944100459798      36.302439192323561                22.78998
   333   2   0.0        1.61224913972041      36.302439192323561      25.068960000000001
   334   2   0.0       2.418371774883195      37.698686853566777      20.510940000000002