 vasp.5.4.4.18Apr17-6-g9f103f2a35 (build Nov 06 2023 00:46:14) complex          
  
 executed on             LinuxIFC date 2025.07.24  14:54:09
 running on   64 total cores
 distrk:  each k-point on   64 cores,    1 groups
 distr:  one band on NCORES_PER_BAND=   8 cores,    8 groups


--------------------------------------------------------------------------------------------------------


 INCAR:
 POTCAR:    PAW_PBE Pt 04Feb2005                  
 POTCAR:    PAW_PBE O 08Apr2002                   
 POTCAR:    PAW_PBE Pt 04Feb2005                  
   VRHFIN =Pt: s1d9                                                             
   LEXCH  = PE                                                                  
   EATOM  =   729.1176 eV,   53.5886 Ry                                         
                                                                                
   TITEL  = PAW_PBE Pt 04Feb2005                                                
   LULTRA =        F    use ultrasoft PP ?                                      
   IUNSCR =        1    unscreen: 0-lin 1-nonlin 2-no                           
   RPACOR =    2.330    partial core radius                                     
   POMASS =  195.080; ZVAL   =   10.000    mass and valenz                      
   RCORE  =    2.600    outmost cutoff radius                                   
   RWIGS  =    2.750; RWIGS  =    1.455    wigner-seitz radius (au A)           
   ENMAX  =  230.283; ENMIN  =  172.712 eV                                      
   ICORE  =        3    local potential                                         
   LCOR   =        T    correct aug charges                                     
   LPAW   =        T    paw PP                                                  
   EAUG   =  358.966                                                            
   DEXC   =    0.000                                                            
   RMAX   =    2.658    core radius for proj-oper                               
   RAUG   =    1.300    factor for augmentation sphere                          
   RDEP   =    2.761    radius for radial grids                                 
   RDEPT  =    2.203    core radius for aug-charge                              
                                                                                
   Atomic configuration                                                         
   16 entries                                                                   
     n  l   j            E        occ.                                          
     1  0  0.50    -78401.1885   2.0000                                         
     2  0  0.50    -13770.7750   2.0000                                         
     2  1  1.50    -11931.0468   6.0000                                         
     3  0  0.50     -3234.7234   2.0000                                         
     3  1  1.50     -2699.2216   6.0000                                         
     3  2  2.50     -2119.5714  10.0000                                         
     4  0  0.50      -695.1528   2.0000                                         
     4  1  1.50      -519.6034   6.0000                                         
     4  2  2.50      -306.6786  10.0000                                         
     4  3  3.50       -70.1041  14.0000                                         
     5  0  0.50      -101.7747   2.0000                                         
     5  1  1.50       -55.9873   6.0000                                         
     5  2  2.50        -6.1423   9.0000                                         
     6  0  0.50        -5.6573   1.0000                                         
     6  1  1.50        -6.8029   0.0000                                         
     5  3  2.50        -1.3606   0.0000                                         
   Description                                                                  
     l       E           TYP  RCUT    TYP  RCUT                                 
     2     -6.1423404     23  2.500                                             
     2     -7.5029230     23  2.500                                             
     0     -5.6573207     23  2.500                                             
     0      0.7416693     23  2.500                                             
     1     -2.7211652     23  2.600                                             
     1     20.4087390     23  2.600                                             
     3     -1.3605826     23  2.500                                             
  local pseudopotential read in
  partial core-charges read in
  partial kinetic energy density read in
  atomic valenz-charges read in
  non local Contribution for L=           2  read in
    real space projection operators read in
  non local Contribution for L=           2  read in
    real space projection operators read in
  non local Contribution for L=           0  read in
    real space projection operators read in
  non local Contribution for L=           0  read in
    real space projection operators read in
  non local Contribution for L=           1  read in
    real space projection operators read in
  non local Contribution for L=           1  read in
    real space projection operators read in
    PAW grid and wavefunctions read in
 
   number of l-projection  operators is LMAX  =           6
   number of lm-projection operators is LMMAX =          18
 
 POTCAR:    PAW_PBE O 08Apr2002                   
   VRHFIN =O: s2p4                                                              
   LEXCH  = PE                                                                  
   EATOM  =   432.3788 eV,   31.7789 Ry                                         
                                                                                
   TITEL  = PAW_PBE O 08Apr2002                                                 
   LULTRA =        F    use ultrasoft PP ?                                      
   IUNSCR =        1    unscreen: 0-lin 1-nonlin 2-no                           
   RPACOR =    1.200    partial core radius                                     
   POMASS =   16.000; ZVAL   =    6.000    mass and valenz                      
   RCORE  =    1.520    outmost cutoff radius                                   
   RWIGS  =    1.550; RWIGS  =    0.820    wigner-seitz radius (au A)           
   ENMAX  =  400.000; ENMIN  =  300.000 eV                                      
   ICORE  =        2    local potential                                         
   LCOR   =        T    correct aug charges                                     
   LPAW   =        T    paw PP                                                  
   EAUG   =  605.392                                                            
   DEXC   =    0.000                                                            
   RMAX   =    1.553    core radius for proj-oper                               
   RAUG   =    1.300    factor for augmentation sphere                          
   RDEP   =    1.550    radius for radial grids                                 
   RDEPT  =    1.329    core radius for aug-charge                              
                                                                                
   Atomic configuration                                                         
    4 entries                                                                   
     n  l   j            E        occ.                                          
     1  0  0.50      -514.6923   2.0000                                         
     2  0  0.50       -23.9615   2.0000                                         
     2  1  0.50        -9.0305   4.0000                                         
     3  2  1.50        -9.5241   0.0000                                         
   Description                                                                  
     l       E           TYP  RCUT    TYP  RCUT                                 
     0    -23.9615318     23  1.200                                             
     0     -9.5240782     23  1.200                                             
     1     -9.0304911     23  1.520                                             
     1      8.1634956     23  1.520                                             
     2     -9.5240782      7  1.500                                             
  local pseudopotential read in
  partial core-charges read in
  partial kinetic energy density read in
  kinetic energy density of atom read in
  atomic valenz-charges read in
  non local Contribution for L=           0  read in
    real space projection operators read in
  non local Contribution for L=           0  read in
    real space projection operators read in
  non local Contribution for L=           1  read in
    real space projection operators read in
  non local Contribution for L=           1  read in
    real space projection operators read in
    PAW grid and wavefunctions read in
 
   number of l-projection  operators is LMAX  =           4
   number of lm-projection operators is LMMAX =           8
 
 Optimization of the real space projectors (new method)

 maximal supplied QI-value         = 14.36
 optimisation between [QCUT,QGAM] = [ 10.77, 21.69] = [ 32.49,131.70] Ry 
 Optimized for a Real-space Cutoff    1.46 Angstroem

   l    n(q)    QCUT    max X(q) W(low)/X(q) W(high)/X(q)  e(spline) 
   2      9    10.771    66.195    0.13E-03    0.31E-03    0.27E-06
   2      9    10.771    64.643    0.13E-03    0.32E-03    0.28E-06
   0     10    10.771    95.520    0.41E-04    0.13E-03    0.15E-06
   0     10    10.771    63.403    0.40E-04    0.12E-03    0.14E-06
   1      9    10.771    19.961    0.42E-03    0.19E-03    0.28E-06
   1      9    10.771    13.289    0.35E-03    0.16E-03    0.23E-06
 Optimization of the real space projectors (new method)

 maximal supplied QI-value         = 24.76
 optimisation between [QCUT,QGAM] = [ 10.64, 21.54] = [ 31.73,129.89] Ry 
 Optimized for a Real-space Cutoff    1.23 Angstroem

   l    n(q)    QCUT    max X(q) W(low)/X(q) W(high)/X(q)  e(spline) 
   0      8    10.645    20.381    0.38E-03    0.60E-03    0.15E-06
   0      8    10.645    15.268    0.40E-03    0.65E-03    0.17E-06
   1      7    10.645     5.964    0.30E-03    0.63E-03    0.18E-06
   1      7    10.645     5.382    0.24E-03    0.53E-03    0.16E-06
  PAW_PBE Pt 04Feb2005                  :
 energy of atom  1       EATOM= -729.1176
 kinetic energy error for atom=    0.0051 (will be added to EATOM!!)
  PAW_PBE O 08Apr2002                   :
 energy of atom  2       EATOM= -432.3788
 kinetic energy error for atom=    0.0389 (will be added to EATOM!!)
 
 
 POSCAR: Pt  O                                   
  positions in cartesian coordinates
  No initial velocities read in
 exchange correlation table for  LEXCH =        8
   RHO(1)=    0.500       N(1)  =     2000
   RHO(2)=  100.500       N(2)  =     4000

 VTST: version 3.2, (02/03/18)

 CHAIN: initializing optimizer
 
 OPT: Using VASP QUASI-newton optimizer
 CHAIN: Read ICHAIN            0
 
 POSCAR: Pt  O                                   
  positions in cartesian coordinates
  No initial velocities read in
 


--------------------------------------------------------------------------------------------------------


 ion  position               nearest neighbor table
   1  0.000  0.000  0.000-   4 2.76  28 2.76  36 2.76  60 2.76  34 2.79  29 2.80   5 2.80  25 2.81
                             9 2.81
   2  0.333  0.000  0.092-   5 2.76  29 2.76  37 2.76  61 2.76  33 2.79  30 2.79  28 2.80   4 2.80
                            10 2.81  26 2.81   3 2.81   6 2.82
   3  0.168  0.003  0.185-   6 2.74   8 2.75  38 2.76  30 2.76  62 2.77  11 2.80   2 2.81  32 2.82
                             5 2.82   7 2.84  29 2.85  27 2.87
   4  0.250  0.125  0.000-   1 2.76   9 2.76  33 2.76  41 2.76   5 2.79   2 2.80  10 2.80  12 2.81
                            28 2.81
   5  0.083  0.125  0.092-   2 2.76  10 2.76  34 2.76  42 2.76  38 2.78   4 2.79   1 2.80   9 2.80
                            29 2.81  13 2.81   3 2.82  11 2.86
   6  0.417  0.126  0.184-  43 2.74   3 2.74  11 2.76  35 2.77  37 2.80  14 2.80  10 2.81  30 2.81
                             2 2.82  39 2.83  47 2.88   8 2.89
   7  0.996  0.998  0.277-   8 2.69  40 2.71  64 2.71  31 2.76  32 2.77  15 2.80  62 2.83   3 2.84
                            38 2.86
   8  0.244  0.113  0.278-  65 2.03  32 2.68   7 2.69   3 2.75  39 2.79  15 2.81   6 2.89  11 2.89
                            16 2.94  47 2.96
   9  0.000  0.250  0.000-   4 2.76  12 2.76  36 2.76  44 2.76  42 2.79  13 2.80   5 2.80  17 2.81
                             1 2.81
  10  0.333  0.250  0.092-   5 2.76  13 2.76  37 2.76  45 2.76  41 2.79   4 2.80  12 2.80  18 2.81
                             2 2.81   6 2.81  11 2.81  14 2.83
  11  0.169  0.252  0.185-  14 2.74  19 2.75   6 2.76  46 2.78  38 2.79   3 2.80  15 2.80  10 2.81
                            13 2.84  16 2.84   5 2.86   8 2.89
  12  0.250  0.375  0.000-   9 2.76  17 2.76  41 2.76  49 2.76  13 2.79  10 2.80  18 2.80   4 2.81
                            20 2.81
  13  0.083  0.375  0.092-  10 2.76  18 2.76  42 2.76  50 2.76  46 2.78  12 2.79   9 2.80  17 2.80
                            21 2.81   5 2.81  19 2.84  11 2.84
  14  0.418  0.375  0.185-  19 2.74  11 2.74  43 2.74  51 2.74   6 2.80  22 2.80  45 2.81  18 2.83
                            10 2.83  47 2.89  55 2.89  16 2.96
  15  0.994  0.247  0.276-  48 2.70  40 2.71  16 2.72  38 2.79   7 2.80  11 2.80   8 2.81  46 2.83
                            23 2.86
  16  0.237  0.375  0.281-  65 2.08  66 2.08  23 2.72  15 2.72  11 2.84  19 2.84   8 2.94  24 2.94
                            14 2.96  55 2.98  47 2.98
  17  0.000  0.500  0.000-  12 2.76  20 2.76  44 2.76  52 2.76  50 2.79  21 2.80  13 2.80  25 2.81
                             9 2.81
  18  0.333  0.500  0.092-  13 2.76  21 2.76  45 2.76  53 2.76  49 2.79  12 2.80  20 2.80  26 2.81
                            10 2.81  22 2.81  19 2.81  14 2.83
  19  0.169  0.498  0.185-  14 2.74  11 2.75  22 2.76  46 2.78  54 2.79  27 2.80  23 2.80  18 2.81
                            13 2.84  16 2.84  21 2.86  24 2.89
  20  0.250  0.625  0.000-  17 2.76  25 2.76  49 2.76  57 2.76  21 2.79  18 2.80  26 2.80  12 2.81
                            28 2.81
  21  0.083  0.625  0.092-  18 2.76  26 2.76  50 2.76  58 2.76  54 2.78  20 2.79  17 2.80  25 2.80
                            29 2.81  13 2.81  27 2.82  19 2.86
  22  0.417  0.624  0.184-  51 2.74  27 2.74  19 2.76  59 2.77  53 2.80  14 2.80  18 2.81  30 2.81
                            26 2.82  63 2.83  55 2.88  24 2.89
  23  0.994  0.503  0.276-  48 2.70  56 2.71  16 2.72  54 2.79  31 2.80  19 2.80  24 2.81  46 2.83
                            15 2.86
  24  0.244  0.637  0.278-  66 2.03  32 2.68  31 2.69  27 2.75  63 2.79  23 2.81  22 2.89  19 2.89
                            16 2.94  55 2.96
  25  0.000  0.750  0.000-  20 2.76  28 2.76  52 2.76  60 2.76  58 2.79  29 2.80  21 2.80  17 2.81
                             1 2.81
  26  0.333  0.750  0.092-  21 2.76  29 2.76  53 2.76  61 2.76  57 2.79  30 2.79  28 2.80  20 2.80
                             2 2.81  18 2.81  27 2.81  22 2.82
  27  0.168  0.747  0.185-  22 2.74  24 2.75  54 2.76  30 2.76  62 2.77  19 2.80  26 2.81  32 2.82
                            21 2.82  31 2.84  29 2.85   3 2.87
  28  0.250  0.875  0.000-   1 2.76  25 2.76  33 2.76  57 2.76  29 2.79  26 2.80   2 2.80  20 2.81
                             4 2.81
  29  0.083  0.875  0.092-   2 2.76  26 2.76  34 2.76  58 2.76  62 2.76  28 2.79  25 2.80   1 2.80
                             5 2.81  21 2.81  27 2.85   3 2.85
  30  0.416  0.875  0.183-  27 2.76   3 2.76  35 2.77  59 2.77  61 2.78   2 2.79  26 2.79  63 2.81
                            39 2.81  22 2.81   6 2.81  32 2.85
  31  0.996  0.752  0.277-  24 2.69  56 2.71  64 2.71   7 2.76  32 2.77  23 2.80  62 2.83  27 2.84
                            54 2.86
  32  0.248  0.875  0.277-  24 2.68   8 2.68   7 2.77  31 2.77  63 2.79  39 2.79  27 2.82   3 2.82
                            30 2.85
  33  0.500  0.000  0.000-   4 2.76  28 2.76  36 2.76  60 2.76   2 2.79  37 2.80  61 2.80  41 2.81
                            57 2.81
  34  0.833  0.000  0.092-   5 2.76  29 2.76  37 2.76  61 2.76  35 2.77   1 2.79  38 2.80  60 2.80
                            36 2.80  62 2.80  58 2.81  42 2.81
  35  0.667  1.000  0.183-  38 2.77   6 2.77  34 2.77  30 2.77  62 2.78  61 2.79  37 2.79  39 2.80
                            59 2.80  43 2.81  40 2.84  64 2.85
  36  0.750  0.125  0.000-   1 2.76   9 2.76  33 2.76  41 2.76  37 2.79  34 2.80  42 2.80  44 2.81
                            60 2.81
  37  0.583  0.125  0.092-   2 2.76  10 2.76  34 2.76  42 2.76  36 2.79  35 2.79   6 2.80  41 2.80
                            33 2.80  45 2.81  61 2.81  43 2.84
  38  0.917  0.126  0.183-   3 2.76  35 2.77   5 2.78  43 2.78  15 2.79  42 2.79  11 2.79  34 2.80
                            46 2.80  62 2.81  40 2.83   7 2.86
  39  0.503  0.996  0.275-  63 2.73  64 2.73  40 2.75  32 2.79   8 2.79  35 2.80  30 2.81  47 2.82
                             6 2.83
  40  0.752  0.121  0.277-  47 2.69   7 2.71  15 2.71  39 2.75  64 2.76  43 2.83  38 2.83  35 2.84
                            48 2.85
  41  0.500  0.250  0.000-   4 2.76  12 2.76  36 2.76  44 2.76  10 2.79  37 2.80  45 2.80  33 2.81
                            49 2.81
  42  0.833  0.250  0.092-   5 2.76  13 2.76  37 2.76  45 2.76   9 2.79  46 2.79  38 2.79  36 2.80
                            44 2.80  34 2.81  50 2.81  43 2.84
  43  0.665  0.250  0.185-   6 2.74  14 2.74  47 2.76  46 2.78  38 2.78  35 2.81  51 2.81  48 2.82
                            40 2.83  37 2.84  42 2.84  45 2.84
  44  0.750  0.375  0.000-   9 2.76  17 2.76  41 2.76  49 2.76  45 2.79  42 2.80  50 2.80  36 2.81
                            52 2.81
  45  0.583  0.375  0.092-  10 2.76  18 2.76  42 2.76  50 2.76  44 2.79  49 2.80  41 2.80  37 2.81
                            53 2.81  14 2.81  43 2.84  51 2.84
  46  0.916  0.375  0.183-  43 2.78  51 2.78  19 2.78  11 2.78  13 2.78  42 2.79  50 2.79  54 2.80
                            38 2.80  48 2.82  23 2.83  15 2.83
  47  0.511  0.247  0.279-  65 2.03  40 2.69  48 2.72  43 2.76  39 2.82  55 2.86   6 2.88  14 2.89
                             8 2.96  16 2.98
  48  0.754  0.375  0.277-  23 2.70  15 2.70  55 2.72  47 2.72  46 2.82  51 2.82  43 2.82  40 2.85
                            56 2.85
  49  0.500  0.500  0.000-  12 2.76  20 2.76  44 2.76  52 2.76  18 2.79  45 2.80  53 2.80  41 2.81
                            57 2.81
  50  0.833  0.500  0.092-  13 2.76  21 2.76  45 2.76  53 2.76  17 2.79  46 2.79  54 2.79  44 2.80
                            52 2.80  42 2.81  58 2.81  51 2.84
  51  0.665  0.500  0.185-  22 2.74  14 2.74  55 2.76  46 2.78  54 2.78  59 2.81  43 2.81  48 2.82
                            56 2.83  53 2.84  50 2.84  45 2.84
  52  0.750  0.625  0.000-  17 2.76  25 2.76  49 2.76  57 2.76  53 2.79  50 2.80  58 2.80  44 2.81
                            60 2.81
  53  0.583  0.625  0.092-  18 2.76  26 2.76  50 2.76  58 2.76  52 2.79  59 2.79  22 2.80  49 2.80
                            57 2.80  45 2.81  61 2.81  51 2.84
  54  0.917  0.624  0.183-  27 2.76  59 2.77  21 2.78  51 2.78  23 2.79  50 2.79  19 2.79  58 2.80
                            46 2.80  62 2.81  56 2.83  31 2.86
  55  0.511  0.503  0.279-  66 2.03  56 2.69  48 2.72  51 2.76  63 2.82  47 2.86  22 2.88  14 2.89
                            24 2.96  16 2.98
  56  0.752  0.629  0.277-  55 2.69  31 2.71  23 2.71  63 2.75  64 2.76  51 2.83  54 2.83  59 2.84
                            48 2.85
  57  0.500  0.750  0.000-  20 2.76  28 2.76  52 2.76  60 2.76  26 2.79  53 2.80  61 2.80  33 2.81
                            49 2.81
  58  0.833  0.750  0.092-  21 2.76  29 2.76  53 2.76  61 2.76  59 2.77  25 2.79  54 2.80  60 2.80
                            52 2.80  62 2.80  50 2.81  34 2.81
  59  0.667  0.750  0.183-  54 2.77  22 2.77  58 2.77  30 2.77  62 2.78  61 2.79  53 2.79  63 2.80
                            35 2.80  51 2.81  56 2.84  64 2.85
  60  0.750  0.875  0.000-   1 2.76  25 2.76  33 2.76  57 2.76  61 2.79  58 2.80  34 2.80  52 2.81
                            36 2.81
  61  0.583  0.875  0.092-   2 2.76  26 2.76  34 2.76  58 2.76  30 2.78  60 2.79  59 2.79  35 2.79
                            57 2.80  33 2.80  37 2.81  53 2.81
  62  0.919  0.875  0.183-  29 2.76   3 2.77  27 2.77  59 2.78  35 2.78  34 2.80  58 2.80  38 2.81
                            54 2.81  31 2.83   7 2.83  64 2.84
  63  0.503  0.754  0.275-  39 2.73  64 2.73  56 2.75  32 2.79  24 2.79  59 2.80  30 2.81  55 2.82
                            22 2.83
  64  0.751  0.875  0.277-   7 2.71  31 2.71  39 2.73  63 2.73  40 2.76  56 2.76  62 2.84  59 2.85
                            35 2.85
  65  0.336  0.241  0.325-   8 2.03  47 2.03  16 2.08
  66  0.335  0.509  0.325-  24 2.03  55 2.03  16 2.08
 

IMPORTANT INFORMATION: All symmetrisations will be switched off!
NOSYMM: (Re-)initialisation of all symmetry stuff for point group C_1.

 
 
 KPOINTS: K-Spacing Value to Generate K-Mesh: 0.03

Automatic generation of k-mesh.
Space group operators:
 irot       det(A)        alpha          n_x          n_y          n_z        tau_x        tau_y        tau_z
    1     1.000000     0.000001     1.000000     0.000000     0.000000     0.000000     0.000000     0.000000
 
 Subroutine IBZKPT returns following result:
 ===========================================
 
 Found      5 irreducible k-points:
 
 Following reciprocal coordinates:
            Coordinates               Weight
  0.000000  0.000000  0.000000      1.000000
  0.333333  0.000000  0.000000      2.000000
  0.000000  0.333333  0.000000      2.000000
  0.333333  0.333333  0.000000      2.000000
 -0.333333  0.333333  0.000000      2.000000
 
 Following cartesian coordinates:
            Coordinates               Weight
  0.000000  0.000000  0.000000      1.000000
  0.035001  0.000000  0.000000      2.000000
  0.000000  0.029706  0.000000      2.000000
  0.035001  0.029706  0.000000      2.000000
 -0.035001  0.029706  0.000000      2.000000
 


--------------------------------------------------------------------------------------------------------




 Dimension of arrays:
   k-points           NKPTS =      5   k-points in BZ     NKDIM =      5   number of bands    NBANDS=    392
   number of dos      NEDOS =    301   number of ions     NIONS =     66
   non local maximal  LDIM  =      6   non local SUM 2l+1 LMDIM =     18
   total plane-waves  NPLWV = 420000
   max r-space proj   IRMAX =   2120   max aug-charges    IRDMAX=   9720
   dimension x,y,z NGX =    50 NGY =   60 NGZ =  140
   dimension x,y,z NGXF=   100 NGYF=  120 NGZF=  280
   support grid    NGXF=   100 NGYF=  120 NGZF=  280
   ions per type =              64   2
   NGX,Y,Z   is equivalent  to a cutoff of   8.73,  8.89,  9.31 a.u.
   NGXF,Y,Z  is equivalent  to a cutoff of  17.46, 17.78, 18.62 a.u.

 SYSTEM =  Pt111 O2 adsorption system              
 POSCAR =  Pt  O                                   

 Startparameter for this run:
   NWRITE =      2    write-flag & timer
   PREC   = normal    normal or accurate (medium, high low for compatibility)
   ISTART =      0    job   : 0-new  1-cont  2-samecut
   ICHARG =      1    charge: 1-file 2-atom 10-const
   ISPIN  =      1    spin polarized calculation?
   LNONCOLLINEAR =      F non collinear calculations
   LSORBIT =      F    spin-orbit coupling
   INIWAV =      1    electr: 0-lowe 1-rand  2-diag
   LASPH  =      F    aspherical Exc in radial PAW
   METAGGA=      F    non-selfconsistent MetaGGA calc.

 Electronic Relaxation 1
   ENCUT  =  450.0 eV  33.07 Ry    5.75 a.u.  16.47 19.41 43.24*2*pi/ulx,y,z
   ENINI  =  450.0     initial cutoff
   ENAUG  =  605.4 eV  augmentation charge cutoff
   NELM   =     60;   NELMIN=  2; NELMDL= -5     # of ELM steps 
   EDIFF  = 0.1E-05   stopping-criterion for ELM
   LREAL  =      T    real-space projection
   NLSPLINE    = F    spline interpolate recip. space projectors
   LCOMPAT=      F    compatible to vasp.4.4
   GGA_COMPAT  = T    GGA compatible to vasp.4.4-vasp.4.6
   LMAXPAW     = -100 max onsite density
   LMAXMIX     =    2 max onsite mixed and CHGCAR
   VOSKOWN=      0    Vosko Wilk Nusair interpolation
   ROPT   =   -0.00050  -0.00050
 Ionic relaxation
   EDIFFG = -.2E-01   stopping-criterion for IOM
   NSW    =    200    number of steps for IOM
   NBLOCK =      1;   KBLOCK =    200    inner block; outer block 
   IBRION =      1    ionic relax: 0-MD 1-quasi-New 2-CG
   NFREE  =      0    steps in history (QN), initial steepest desc. (CG)
   ISIF   =      2    stress and relaxation
   IWAVPR =     11    prediction:  0-non 1-charg 2-wave 3-comb
   ISYM   =      0    0-nonsym 1-usesym 2-fastsym
   LCORR  =      T    Harris-Foulkes like correction to forces

   POTIM  = 0.2000    time-step for ionic-motion
   TEIN   =    0.0    initial temperature
   TEBEG  =    0.0;   TEEND  =   0.0 temperature during run
   SMASS  =  -3.00    Nose mass-parameter (am)
   estimated Nose-frequenzy (Omega)   =  0.10E-29 period in steps =****** mass=  -0.207E-26a.u.
   SCALEE = 1.0000    scale energy and forces
   NPACO  =    256;   APACO  = 16.0  distance and # of slots for P.C.
   PSTRESS=    0.0 pullay stress

  Mass of Ions in am
   POMASS = 195.08 16.00
  Ionic Valenz
   ZVAL   =  10.00  6.00
  Atomic Wigner-Seitz radii
   RWIGS  =  -1.00 -1.00
  virtual crystal weights 
   VCA    =   1.00  1.00
   NELECT =     652.0000    total number of electrons
   NUPDOWN=      -1.0000    fix difference up-down

 DOS related values:
   EMIN   =  10.00;   EMAX   =-10.00  energy-range for DOS
   EFERMI =   0.00
   ISMEAR =     0;   SIGMA  =   0.10  broadening in eV -4-tet -1-fermi 0-gaus

 Electronic relaxation 2 (details)
   IALGO  =     68    algorithm
   LDIAG  =      T    sub-space diagonalisation (order eigenvalues)
   LSUBROT=      F    optimize rotation matrix (better conditioning)
   TURBO    =      0    0=normal 1=particle mesh
   IRESTART =      0    0=no restart 2=restart with 2 vectors
   NREBOOT  =      0    no. of reboots
   NMIN     =      0    reboot dimension
   EREF     =   0.00    reference energy to select bands
   IMIX   =      4    mixing-type and parameters
     AMIX     =   0.40;   BMIX     =  1.00
     AMIX_MAG =   1.60;   BMIX_MAG =  1.00
     AMIN     =   0.10
     WC   =   100.;   INIMIX=   1;  MIXPRE=   1;  MAXMIX= -45

 Intra band minimization:
   WEIMIN = 0.0010     energy-eigenvalue tresh-hold
   EBREAK =  0.64E-09  absolut break condition
   DEPER  =   0.30     relativ break condition  

   TIME   =   0.40     timestep for ELM

  volume/ion in A,a.u.               =      40.48       273.16
  Fermi-wavevector in a.u.,A,eV,Ry     =   1.023059  1.933300 14.240521  1.046649
  Thomas-Fermi vector in A             =   2.156771
 
 Write flags
   LWAVE        =      F    write WAVECAR
   LDOWNSAMPLE  =      F    k-point downsampling of WAVECAR
   LCHARG       =      F    write CHGCAR
   LVTOT        =      F    write LOCPOT, total local potential
   LVHAR        =      F    write LOCPOT, Hartree potential only
   LELF         =      F    write electronic localiz. function (ELF)
   LORBIT       =      0    0 simple, 1 ext, 2 COOP (PROOUT), +10 PAW based schemes


 Dipole corrections
   LMONO  =      F    monopole corrections only (constant potential shift)
   LDIPOL =      T    correct potential (dipole corrections)
   IDIPOL =      3    1-x, 2-y, 3-z, 4-all directions 
   EPSILON=  1.0000000 bulk dielectric constant

 Exchange correlation treatment:
   GGA     =    PE    GGA type
   LEXCH   =     8    internal setting for exchange type
   VOSKOWN=      0    Vosko Wilk Nusair interpolation
   LHFCALC =     F    Hartree Fock is set to
   LHFONE  =     F    Hartree Fock one center treatment
   AEXX    =    0.0000 exact exchange contribution

 Linear response parameters
   LEPSILON=     F    determine dielectric tensor
   LRPA    =     F    only Hartree local field effects (RPA)
   LNABLA  =     F    use nabla operator in PAW spheres
   LVEL    =     F    velocity operator in full k-point grid
   LINTERFAST=   F  fast interpolation
   KINTER  =     0    interpolate to denser k-point grid
   CSHIFT  =0.1000    complex shift for real part using Kramers Kronig
   OMEGAMAX=  -1.0    maximum frequency
   DEG_THRESHOLD= 0.2000000E-02 threshold for treating states as degnerate
   RTIME   =   -0.100 relaxation time in fs
  (WPLASMAI=    0.000 imaginary part of plasma frequency in eV, 0.658/RTIME)
   DFIELD  = 0.0000000 0.0000000 0.0000000 field for delta impulse in time
 
 Orbital magnetization related:
   ORBITALMAG=     F  switch on orbital magnetization
   LCHIMAG   =     F  perturbation theory with respect to B field
   DQ        =  0.001000  dq finite difference perturbation B field
   LLRAUG    =     F  two centre corrections for induced B field



--------------------------------------------------------------------------------------------------------


 quasi-Newton-method for relaxation of ions
   using selective dynamics as specified on POSCAR
   WARNING: If single coordinates had been selected the selection of coordinates
            is made according to the corresponding   d i r e c t   coordinates!
            Don't support selection of single cartesian coordinates -- sorry ...
  !
 charge density and potential will be updated during run
 non-spin polarized calculation
 RMM-DIIS sequential band-by-band and
  variant of blocked Davidson during initial phase
 perform sub-space diagonalisation
    before iterative eigenvector-optimisation
 modified Broyden-mixing scheme, WC =      100.0
 initial mixing is a Kerker type mixing with AMIX =  0.4000 and BMIX =      1.0000
 Hartree-type preconditioning will be used
 using additional bands           66
 real space projection scheme for non local part
 use partial core corrections
 calculate Harris-corrections to forces 
   (improved forces if not selfconsistent)
 use gradient corrections 
 use of overlap-Matrix (Vanderbilt PP)
 Gauss-broadening in eV      SIGMA  =   0.10


--------------------------------------------------------------------------------------------------------


  energy-cutoff  :      450.00
  volume of cell :     2671.60
      direct lattice vectors                 reciprocal lattice vectors
     9.523436180  0.000000000  0.000000000     0.105004116  0.000000000  0.000000000
     0.000000000 11.221139680  0.000000000     0.000000000  0.089117508  0.000000000
     0.000000000  0.000000000 25.000000000     0.000000000  0.000000000  0.040000000

  length of vectors
     9.523436180 11.221139680 25.000000000     0.105004116  0.089117508  0.040000000


 
 k-points in units of 2pi/SCALE and weight: K-Spacing Value to Generate K-Mesh: 0.03
   0.00000000  0.00000000  0.00000000       0.111
   0.03500137  0.00000000  0.00000000       0.222
   0.00000000  0.02970584  0.00000000       0.222
   0.03500137  0.02970584  0.00000000       0.222
  -0.03500137  0.02970584  0.00000000       0.222
 
 k-points in reciprocal lattice and weights: K-Spacing Value to Generate K-Mesh: 0.03
   0.00000000  0.00000000  0.00000000       0.111
   0.33333333  0.00000000  0.00000000       0.222
   0.00000000  0.33333333  0.00000000       0.222
   0.33333333  0.33333333  0.00000000       0.222
  -0.33333333  0.33333333  0.00000000       0.222
 
 position of ions in fractional coordinates (direct lattice) 
   0.00000000  0.00000000  0.00000000
   0.33333333  0.00000000  0.09162022
   0.16824260  0.00282755  0.18468813
   0.25000000  0.12500000  0.00000000
   0.08333333  0.12500000  0.09162022
   0.41716616  0.12578006  0.18380060
   0.99597895  0.99816518  0.27721628
   0.24409526  0.11334845  0.27847690
   0.00000000  0.25000000  0.00000000
   0.33333333  0.25000000  0.09162022
   0.16918368  0.25240682  0.18524710
   0.25000000  0.37500000  0.00000000
   0.08333333  0.37500000  0.09162022
   0.41764627  0.37500062  0.18476780
   0.99449370  0.24744949  0.27550495
   0.23713615  0.37499823  0.28112095
   0.00000000  0.50000000  0.00000000
   0.33333333  0.50000000  0.09162022
   0.16918251  0.49758921  0.18524531
   0.25000000  0.62500000  0.00000000
   0.08333333  0.62500000  0.09162022
   0.41716874  0.62422226  0.18380285
   0.99449396  0.50254693  0.27550364
   0.24410072  0.63665133  0.27847690
   0.00000000  0.75000000  0.00000000
   0.33333333  0.75000000  0.09162022
   0.16824460  0.74717556  0.18468756
   0.25000000  0.87500000  0.00000000
   0.08333333  0.87500000  0.09162022
   0.41588671  0.87500014  0.18275825
   0.99597594  0.75183247  0.27721266
   0.24771041  0.87499692  0.27688077
   0.50000000  0.00000000  0.00000000
   0.83333333  0.00000000  0.09162022
   0.66740319  0.99978277  0.18277786
   0.75000000  0.12500000  0.00000000
   0.58333333  0.12500000  0.09162022
   0.91710324  0.12559914  0.18288811
   0.50274747  0.99648855  0.27541047
   0.75170489  0.12131163  0.27710030
   0.50000000  0.25000000  0.00000000
   0.83333333  0.25000000  0.09162022
   0.66489877  0.24975662  0.18527323
   0.75000000  0.37500000  0.00000000
   0.58333333  0.37500000  0.09162022
   0.91611025  0.37499943  0.18270494
   0.51148454  0.24734159  0.27874498
   0.75373666  0.37500119  0.27690071
   0.50000000  0.50000000  0.00000000
   0.83333333  0.50000000  0.09162022
   0.66490046  0.50024601  0.18527583
   0.75000000  0.62500000  0.00000000
   0.58333333  0.62500000  0.09162022
   0.91710434  0.62439962  0.18288932
   0.51148419  0.50265451  0.27874658
   0.75170251  0.62869232  0.27710234
   0.50000000  0.75000000  0.00000000
   0.83333333  0.75000000  0.09162022
   0.66740751  0.75022223  0.18277832
   0.75000000  0.87500000  0.00000000
   0.58333333  0.87500000  0.09162022
   0.91941133  0.87500304  0.18290274
   0.50274698  0.75351412  0.27541022
   0.75136973  0.87500334  0.27661027
   0.33550273  0.24054600  0.32450911
   0.33549962  0.50945216  0.32450921
 
 position of ions in cartesian coordinates  (Angst):
   0.00000000  0.00000000  0.00000000
   3.17447874  0.00000000  2.29050552
   1.60224765  0.03172835  4.61720334
   2.38085904  1.40264246  0.00000000
   0.79361970  1.40264246  2.29050552
   3.97285535  1.41139560  4.59501497
   9.48514196 11.20055094  6.93040695
   2.32462561  1.27189875  6.96192252
   0.00000000  2.80528492  0.00000000
   3.17447874  2.80528492  2.29050552
   1.61120997  2.83229216  4.63117744
   2.38085904  4.20792738  0.00000000
   0.79361970  4.20792738  2.29050552
   3.97742760  4.20793428  4.61919491
   9.47099728  2.77666530  6.88762372
   2.25835097  4.20790753  7.02802364
   0.00000000  5.61056984  0.00000000
   3.17447874  5.61056984  2.29050552
   1.61119883  5.58351799  4.63113273
   2.38085904  7.01321230  0.00000000
   0.79361970  7.01321230  2.29050552
   3.97287985  7.00448522  4.59507133
   9.47099978  5.63914926  6.88759094
   2.32467763  7.14395354  6.96192243
   0.00000000  8.41585476  0.00000000
   3.17447874  8.41585476  2.29050552
   1.60226669  8.38416132  4.61718889
   2.38085904  9.81849722  0.00000000
   0.79361970  9.81849722  2.29050552
   3.96067054  9.81849879  4.56895622
   9.48511331  8.43641718  6.93031648
   2.35905429  9.81846265  6.92201915
   4.76171809  0.00000000  0.00000000
   7.93619683  0.00000000  2.29050552
   6.35597172 11.21870213  4.56944645
   7.14257713  1.40264246  0.00000000
   5.55533779  1.40264246  2.29050552
   8.73397421  1.40936545  4.57220275
   4.78788341 11.18173726  6.88526172
   7.15881353  1.36125480  6.92750762
   4.76171809  2.80528492  0.00000000
   7.93619683  2.80528492  2.29050552
   6.33212103  2.80255394  4.63183077
   7.14257713  4.20792738  0.00000000
   5.55533779  4.20792738  2.29050552
   8.72451745  4.20792093  4.56762342
   4.87109037  2.77545452  6.96862459
   7.17816299  4.20794072  6.92251776
   4.76171809  5.61056984  0.00000000
   7.93619683  5.61056984  2.29050552
   6.33213711  5.61333030  4.63189563
   7.14257713  7.01321230  0.00000000
   5.55533779  7.01321230  2.29050552
   8.73398462  7.00647536  4.57223291
   4.87108700  5.64035646  6.96866446
   7.15879086  7.05464430  6.92755840
   4.76171809  8.41585476  0.00000000
   7.93619683  8.41585476  2.29050552
   6.35601282  8.41834841  4.56945796
   7.14257713  9.81849722  0.00000000
   5.55533779  9.81849722  2.29050552
   8.75595511  9.81853138  4.57256852
   4.78787881  8.45528720  6.88525553
   7.15562166  9.81853471  6.91525669
   3.19513886  2.69920031  8.11272770
   3.19510922  5.71663385  8.11273025
 


--------------------------------------------------------------------------------------------------------


 k-point  1 :   0.0000 0.0000 0.0000  plane waves:   57957
 k-point  2 :   0.3333 0.0000 0.0000  plane waves:   57951
 k-point  3 :   0.0000 0.3333 0.0000  plane waves:   57949
 k-point  4 :   0.3333 0.3333 0.0000  plane waves:   57919
 k-point  5 :  -0.3333 0.3333 0.0000  plane waves:   57919

 maximum and minimum number of plane-waves per node :      7270     7222

 maximum number of plane-waves:     57957
 maximum index in each direction: 
   IXMAX=   16   IYMAX=   19   IZMAX=   43
   IXMIN=  -16   IYMIN=  -19   IZMIN=  -43


 real space projection operators:
  total allocation   :      18270.94 KBytes
  max/ min on nodes  :       2580.28       2149.91


 parallel 3D FFT for wavefunctions:
    minimum data exchange during FFTs selected (reduces bandwidth)
 parallel 3D FFT for charge:
    minimum data exchange during FFTs selected (reduces bandwidth)


 total amount of memory used by VASP MPI-rank0    74817. kBytes
=======================================================================

   base      :      30000. kBytes
   nonlr-proj:       5530. kBytes
   fftplans  :       3937. kBytes
   grid      :       6141. kBytes
   one-center:        139. kBytes
   wavefun   :      29070. kBytes
 
     INWAV:  cpu time    0.0000: real time    0.0002
 Broyden mixing: mesh for mixing (old mesh)
   NGX = 33   NGY = 39   NGZ = 87
  (NGX  =100   NGY  =120   NGZ  =280)
  gives a total of 111969 points

 initial charge density was supplied:
 charge density of overlapping atoms calculated
 number of electron     652.0000000 magnetization 
 keeping initial charge density in first step


--------------------------------------------------------------------------------------------------------


 Maximum index for non-local projection operator          403
 Maximum index for augmentation-charges          548 (set IRDMAX)


--------------------------------------------------------------------------------------------------------


 First call to EWALD:  gamma=   0.128
 Maximum number of real-space cells 4x 3x 2
 Maximum number of reciprocal cells 2x 2x 5

    FEWALD:  cpu time    0.0102: real time    0.0110


--------------------------------------- Iteration      1(   1)  ---------------------------------------


    POTLOK:  cpu time    0.0328: real time    0.0680
    SETDIJ:  cpu time    0.0042: real time    0.0042
     EDDAV:  cpu time    8.6551: real time    8.6659
       DOS:  cpu time    0.0008: real time    0.0007
    --------------------------------------------
      LOOP:  cpu time    8.6928: real time    8.7389

 eigenvalue-minimisations  :  3920
 total energy-change (2. order) : 0.4308902E+04  (-0.2690806E+05)
 number of electron     652.0000000 magnetization 
 augmentation part      652.0000000 magnetization 

 DIPCOR: dipole corrections for dipol
 direction  3 min pos   169,
 dipolmoment           0.000000      0.000000     -0.000353 electrons x Angstroem
 Tr[quadrupol]    -12199.454920

 energy correction for charged system         0.000000 eV
 dipol+quadrupol energy correction           -0.000000 eV
 added-field ion interaction          0.016203 eV  (added to PSCEN)


 Free energy of the ion-electron system (eV)
  ---------------------------------------------------
  alpha Z        PSCENC =      1496.04779332
  Ewald energy   TEWEN  =    248270.24149623
  -Hartree energ DENC   =   -298319.55185726
  -exchange      EXHF   =         0.00000000
  -V(xc)+E(xc)   XCENC  =       275.05619384
  PAW double counting   =     45245.00522118   -43438.47517393
  entropy T*S    EENTRO =        -0.14824089
  eigenvalues    EBANDS =      3252.84952989
  atomic energy  EATOM  =     47527.87699037
  Solvation  Ediel_sol  =         0.00000000
  ---------------------------------------------------
  free energy    TOTEN  =      4308.90195275 eV

  energy without entropy =     4309.05019364  energy(sigma->0) =     4308.97607319


--------------------------------------------------------------------------------------------------------




--------------------------------------- Iteration      1(   2)  ---------------------------------------


     EDDAV:  cpu time    9.8270: real time    9.8387
       DOS:  cpu time    0.0007: real time    0.0007
    --------------------------------------------
      LOOP:  cpu time    9.8277: real time    9.8394

 eigenvalue-minimisations  :  4648
 total energy-change (2. order) :-0.4377877E+04  (-0.4043852E+04)
 number of electron     652.0000000 magnetization 
 augmentation part      652.0000000 magnetization 

 DIPCOR: dipole corrections for dipol
 direction  3 min pos   169,
 dipolmoment           0.000000      0.000000     -0.000353 electrons x Angstroem
 Tr[quadrupol]    -12199.454920

 energy correction for charged system         0.000000 eV
 dipol+quadrupol energy correction           -0.000000 eV
 added-field ion interaction          0.016203 eV  (added to PSCEN)


 Free energy of the ion-electron system (eV)
  ---------------------------------------------------
  alpha Z        PSCENC =      1496.04779332
  Ewald energy   TEWEN  =    248270.24149623
  -Hartree energ DENC   =   -298319.55185726
  -exchange      EXHF   =         0.00000000
  -V(xc)+E(xc)   XCENC  =       275.05619384
  PAW double counting   =     45245.00522118   -43438.47517393
  entropy T*S    EENTRO =        -0.26107128
  eigenvalues    EBANDS =     -1124.91487349
  atomic energy  EATOM  =     47527.87699037
  Solvation  Ediel_sol  =         0.00000000
  ---------------------------------------------------
  free energy    TOTEN  =       -68.97528103 eV

  energy without entropy =      -68.71420974  energy(sigma->0) =      -68.84474538


--------------------------------------------------------------------------------------------------------




--------------------------------------- Iteration      1(   3)  ---------------------------------------


     EDDAV:  cpu time    9.7557: real time    9.7661
       DOS:  cpu time    0.0007: real time    0.0007
    --------------------------------------------
      LOOP:  cpu time    9.7564: real time    9.7669

 eigenvalue-minimisations  :  4608
 total energy-change (2. order) :-0.3261604E+03  (-0.2944593E+03)
 number of electron     652.0000000 magnetization 
 augmentation part      652.0000000 magnetization 

 DIPCOR: dipole corrections for dipol
 direction  3 min pos   169,
 dipolmoment           0.000000      0.000000     -0.000353 electrons x Angstroem
 Tr[quadrupol]    -12199.454920

 energy correction for charged system         0.000000 eV
 dipol+quadrupol energy correction           -0.000000 eV
 added-field ion interaction          0.016203 eV  (added to PSCEN)


 Free energy of the ion-electron system (eV)
  ---------------------------------------------------
  alpha Z        PSCENC =      1496.04779332
  Ewald energy   TEWEN  =    248270.24149623
  -Hartree energ DENC   =   -298319.55185726
  -exchange      EXHF   =         0.00000000
  -V(xc)+E(xc)   XCENC  =       275.05619384
  PAW double counting   =     45245.00522118   -43438.47517393
  entropy T*S    EENTRO =        -0.51907519
  eigenvalues    EBANDS =     -1450.81728181
  atomic energy  EATOM  =     47527.87699037
  Solvation  Ediel_sol  =         0.00000000
  ---------------------------------------------------
  free energy    TOTEN  =      -395.13569325 eV

  energy without entropy =     -394.61661806  energy(sigma->0) =     -394.87615566


--------------------------------------------------------------------------------------------------------




--------------------------------------- Iteration      1(   4)  ---------------------------------------


     EDDAV:  cpu time   10.4347: real time   10.4571
       DOS:  cpu time    0.0007: real time    0.0007
    --------------------------------------------
      LOOP:  cpu time   10.4354: real time   10.4578

 eigenvalue-minimisations  :  5008
 total energy-change (2. order) :-0.1603783E+02  (-0.1510225E+02)
 number of electron     652.0000000 magnetization 
 augmentation part      652.0000000 magnetization 

 DIPCOR: dipole corrections for dipol
 direction  3 min pos   169,
 dipolmoment           0.000000      0.000000     -0.000353 electrons x Angstroem
 Tr[quadrupol]    -12199.454920

 energy correction for charged system         0.000000 eV
 dipol+quadrupol energy correction           -0.000000 eV
 added-field ion interaction          0.016203 eV  (added to PSCEN)


 Free energy of the ion-electron system (eV)
  ---------------------------------------------------
  alpha Z        PSCENC =      1496.04779332
  Ewald energy   TEWEN  =    248270.24149623
  -Hartree energ DENC   =   -298319.55185726
  -exchange      EXHF   =         0.00000000
  -V(xc)+E(xc)   XCENC  =       275.05619384
  PAW double counting   =     45245.00522118   -43438.47517393
  entropy T*S    EENTRO =        -0.55675186
  eigenvalues    EBANDS =     -1466.81743072
  atomic energy  EATOM  =     47527.87699037
  Solvation  Ediel_sol  =         0.00000000
  ---------------------------------------------------
  free energy    TOTEN  =      -411.17351884 eV

  energy without entropy =     -410.61676697  energy(sigma->0) =     -410.89514291


--------------------------------------------------------------------------------------------------------




--------------------------------------- Iteration      1(   5)  ---------------------------------------


     EDDAV:  cpu time   10.2037: real time   10.2199
       DOS:  cpu time    0.0008: real time    0.0008
    CHARGE:  cpu time    0.1473: real time    0.1476
    MIXING:  cpu time    0.0013: real time    0.0017
    --------------------------------------------
      LOOP:  cpu time   10.3532: real time   10.3700

 eigenvalue-minimisations  :  4872
 total energy-change (2. order) :-0.4323254E+00  (-0.4290631E+00)
 number of electron     651.9999817 magnetization 
 augmentation part      187.4704713 magnetization 

 DIPCOR: dipole corrections for dipol
 direction  3 min pos   169,
 dipolmoment           0.000000      0.000000     -0.000353 electrons x Angstroem
 Tr[quadrupol]    -12199.454920

 energy correction for charged system         0.000000 eV
 dipol+quadrupol energy correction           -0.000000 eV
 added-field ion interaction          0.016203 eV  (added to PSCEN)


 Broyden mixing:
  rms(total) = 0.88045E+01    rms(broyden)= 0.88044E+01
  rms(prec ) = 0.89025E+01
  weight for this iteration     100.00

 Free energy of the ion-electron system (eV)
  ---------------------------------------------------
  alpha Z        PSCENC =      1496.04779332
  Ewald energy   TEWEN  =    248270.24149623
  -Hartree energ DENC   =   -298319.55185726
  -exchange      EXHF   =         0.00000000
  -V(xc)+E(xc)   XCENC  =       275.05619384
  PAW double counting   =     45245.00522118   -43438.47517393
  entropy T*S    EENTRO =        -0.55706710
  eigenvalues    EBANDS =     -1467.24944084
  atomic energy  EATOM  =     47527.87699037
  Solvation  Ediel_sol  =         0.00000000
  ---------------------------------------------------
  free energy    TOTEN  =      -411.60584419 eV

  energy without entropy =     -411.04877709  energy(sigma->0) =     -411.32731064


--------------------------------------------------------------------------------------------------------




--------------------------------------- Iteration      1(   6)  ---------------------------------------


    POTLOK:  cpu time    0.0299: real time    0.0301
    SETDIJ:  cpu time    0.0037: real time    0.0037
    EDDIAG:  cpu time    1.2497: real time    1.2510
  RMM-DIIS:  cpu time    3.5095: real time    3.5130
    ORTHCH:  cpu time    0.5632: real time    0.5635
       DOS:  cpu time    0.0009: real time    0.0009
    CHARGE:  cpu time    0.1468: real time    0.1470
    MIXING:  cpu time    0.0013: real time    0.0014
    --------------------------------------------
      LOOP:  cpu time    5.5052: real time    5.5106

 eigenvalue-minimisations  :  3937
 total energy-change (2. order) : 0.1525765E+02  (-0.8052712E+01)
 number of electron     651.9999822 magnetization 
 augmentation part      197.8225248 magnetization 

 DIPCOR: dipole corrections for dipol
 direction  3 min pos   186,
 dipolmoment           0.000000      0.000000     -0.180464 electrons x Angstroem
 Tr[quadrupol]    -12189.524180

 energy correction for charged system         0.000000 eV
 dipol+quadrupol energy correction           -0.001103 eV
 added-field ion interaction         -3.802641 eV  (added to PSCEN)


 Broyden mixing:
  rms(total) = 0.63419E+01    rms(broyden)= 0.63417E+01
  rms(prec ) = 0.68050E+01
  weight for this iteration     100.00

 eigenvalues of (default mixing * dielectric matrix)
  average eigenvalue GAMMA=   1.1921
  1.1921

 Free energy of the ion-electron system (eV)
  ---------------------------------------------------
  alpha Z        PSCENC =      1492.22784580
  Ewald energy   TEWEN  =    248270.24149623
  -Hartree energ DENC   =   -297579.60818625
  -exchange      EXHF   =         0.00000000
  -V(xc)+E(xc)   XCENC  =       260.48472259
  PAW double counting   =     50162.66808977   -48452.40110759
  entropy T*S    EENTRO =        -0.54129277
  eigenvalues    EBANDS =     -2077.29675029
  atomic energy  EATOM  =     47527.87699037
  Solvation  Ediel_sol  =         0.00000000
  ---------------------------------------------------
  free energy    TOTEN  =      -396.34819215 eV

  energy without entropy =     -395.80689938  energy(sigma->0) =     -396.07754577


--------------------------------------------------------------------------------------------------------




--------------------------------------- Iteration      1(   7)  ---------------------------------------


    POTLOK:  cpu time    0.0303: real time    0.0322
    SETDIJ:  cpu time    0.0037: real time    0.0037
    EDDIAG:  cpu time    1.2435: real time    1.2449
  RMM-DIIS:  cpu time    3.8400: real time    3.8442
    ORTHCH:  cpu time    0.5674: real time    0.5677
       DOS:  cpu time    0.0009: real time    0.0009
    CHARGE:  cpu time    0.1470: real time    0.1473
    MIXING:  cpu time    0.0010: real time    0.0010
    --------------------------------------------
      LOOP:  cpu time    5.8338: real time    5.8417

 eigenvalue-minimisations  :  4229
 total energy-change (2. order) :-0.2070346E+03  (-0.3289724E+02)
 number of electron     651.9999753 magnetization 
 augmentation part      192.1297479 magnetization 

 DIPCOR: dipole corrections for dipol
 direction  3 min pos   180,
 dipolmoment           0.000000      0.000000      4.580052 electrons x Angstroem
 Tr[quadrupol]    -12211.142108

 energy correction for charged system         0.000000 eV
 dipol+quadrupol energy correction           -0.710447 eV
 added-field ion interaction        -11.851916 eV  (added to PSCEN)


 Broyden mixing:
  rms(total) = 0.10278E+02    rms(broyden)= 0.10278E+02
  rms(prec ) = 0.13595E+02
  weight for this iteration     100.00

 eigenvalues of (default mixing * dielectric matrix)
  average eigenvalue GAMMA=   0.9626
  1.7196  0.2057

 Free energy of the ion-electron system (eV)
  ---------------------------------------------------
  alpha Z        PSCENC =      1483.46922631
  Ewald energy   TEWEN  =    248270.24149623
  -Hartree energ DENC   =   -298113.20362922
  -exchange      EXHF   =         0.00000000
  -V(xc)+E(xc)   XCENC  =       254.17121023
  PAW double counting   =     53325.61583105   -51649.66371453
  entropy T*S    EENTRO =        -0.42589633
  eigenvalues    EBANDS =     -1701.46429458
  atomic energy  EATOM  =     47527.87699037
  Solvation  Ediel_sol  =         0.00000000
  ---------------------------------------------------
  free energy    TOTEN  =      -603.38278048 eV

  energy without entropy =     -602.95688415  energy(sigma->0) =     -603.16983232


--------------------------------------------------------------------------------------------------------




--------------------------------------- Iteration      1(   8)  ---------------------------------------


    POTLOK:  cpu time    0.0292: real time    0.0365
    SETDIJ:  cpu time    0.0036: real time    0.0036
    EDDIAG:  cpu time    1.2467: real time    1.2478
  RMM-DIIS:  cpu time    3.4850: real time    3.4883
    ORTHCH:  cpu time    0.5604: real time    0.5607
       DOS:  cpu time    0.0008: real time    0.0008
    CHARGE:  cpu time    0.1455: real time    0.1458
    MIXING:  cpu time    0.0009: real time    0.0009
    --------------------------------------------
      LOOP:  cpu time    5.4722: real time    5.4844

 eigenvalue-minimisations  :  3920
 total energy-change (2. order) : 0.7657804E+02  (-0.1406351E+02)
 number of electron     651.9999789 magnetization 
 augmentation part      196.4419253 magnetization 

 DIPCOR: dipole corrections for dipol
 direction  3 min pos   183,
 dipolmoment           0.000000      0.000000     -2.326715 electrons x Angstroem
 Tr[quadrupol]    -12210.964081

 energy correction for charged system         0.000000 eV
 dipol+quadrupol energy correction           -0.183349 eV
 added-field ion interaction        -21.503164 eV  (added to PSCEN)


 Broyden mixing:
  rms(total) = 0.92502E+01    rms(broyden)= 0.92501E+01
  rms(prec ) = 0.11547E+02
  weight for this iteration     100.00

 eigenvalues of (default mixing * dielectric matrix)
  average eigenvalue GAMMA=   0.8662
  2.1717  0.2135  0.2135

 Free energy of the ion-electron system (eV)
  ---------------------------------------------------
  alpha Z        PSCENC =      1474.34507728
  Ewald energy   TEWEN  =    248270.24149623
  -Hartree energ DENC   =   -298027.59275233
  -exchange      EXHF   =         0.00000000
  -V(xc)+E(xc)   XCENC  =       250.28868052
  PAW double counting   =     55588.39821331   -53943.51761009
  entropy T*S    EENTRO =        -0.24543344
  eigenvalues    EBANDS =     -1666.59940705
  atomic energy  EATOM  =     47527.87699037
  Solvation  Ediel_sol  =         0.00000000
  ---------------------------------------------------
  free energy    TOTEN  =      -526.80474520 eV

  energy without entropy =     -526.55931176  energy(sigma->0) =     -526.68202848


--------------------------------------------------------------------------------------------------------




--------------------------------------- Iteration      1(   9)  ---------------------------------------


    POTLOK:  cpu time    0.0274: real time    0.0275
    SETDIJ:  cpu time    0.0036: real time    0.0036
    EDDIAG:  cpu time    1.2377: real time    1.2393
  RMM-DIIS:  cpu time    3.4835: real time    3.4893
    ORTHCH:  cpu time    0.5621: real time    0.5623
       DOS:  cpu time    0.0009: real time    0.0009
    CHARGE:  cpu time    0.1478: real time    0.1481
    MIXING:  cpu time    0.0011: real time    0.0011
    --------------------------------------------
      LOOP:  cpu time    5.4641: real time    5.4721

 eigenvalue-minimisations  :  3932
 total energy-change (2. order) : 0.1101231E+03  (-0.7175194E+01)
 number of electron     651.9999771 magnetization 
 augmentation part      200.3201953 magnetization 

 DIPCOR: dipole corrections for dipol
 direction  3 min pos   181,
 dipolmoment           0.000000      0.000000      0.743168 electrons x Angstroem
 Tr[quadrupol]    -12199.694616

 energy correction for charged system         0.000000 eV
 dipol+quadrupol energy correction           -0.018705 eV
 added-field ion interaction          1.007340 eV  (added to PSCEN)


 Broyden mixing:
  rms(total) = 0.46459E+01    rms(broyden)= 0.46458E+01
  rms(prec ) = 0.62211E+01
  weight for this iteration     100.00

 eigenvalues of (default mixing * dielectric matrix)
  average eigenvalue GAMMA=   0.7968
  2.0953  0.4765  0.4765  0.1389

 Free energy of the ion-electron system (eV)
  ---------------------------------------------------
  alpha Z        PSCENC =      1497.02022488
  Ewald energy   TEWEN  =    248270.24149623
  -Hartree energ DENC   =   -297597.58554314
  -exchange      EXHF   =         0.00000000
  -V(xc)+E(xc)   XCENC  =       248.71264285
  PAW double counting   =     57798.03266758   -56181.79849016
  entropy T*S    EENTRO =        -0.39469921
  eigenvalues    EBANDS =     -1978.78698210
  atomic energy  EATOM  =     47527.87699037
  Solvation  Ediel_sol  =         0.00000000
  ---------------------------------------------------
  free energy    TOTEN  =      -416.68169271 eV

  energy without entropy =     -416.28699350  energy(sigma->0) =     -416.48434311


--------------------------------------------------------------------------------------------------------




--------------------------------------- Iteration      1(  10)  ---------------------------------------


    POTLOK:  cpu time    0.0291: real time    0.0384
    SETDIJ:  cpu time    0.0036: real time    0.0036
    EDDIAG:  cpu time    1.2385: real time    1.2403
  RMM-DIIS:  cpu time    3.5274: real time    3.5333
    ORTHCH:  cpu time    0.5752: real time    0.5756
       DOS:  cpu time    0.0009: real time    0.0009
    CHARGE:  cpu time    0.1487: real time    0.1490
    MIXING:  cpu time    0.0011: real time    0.0011
    --------------------------------------------
      LOOP:  cpu time    5.5244: real time    5.5421

 eigenvalue-minimisations  :  3931
 total energy-change (2. order) : 0.1415311E+02  (-0.5613355E+01)
 number of electron     651.9999785 magnetization 
 augmentation part      200.5086388 magnetization 

 DIPCOR: dipole corrections for dipol
 direction  3 min pos   188,
 dipolmoment           0.000000      0.000000      0.287461 electrons x Angstroem
 Tr[quadrupol]    -12195.188988

 energy correction for charged system         0.000000 eV
 dipol+quadrupol energy correction           -0.002799 eV
 added-field ion interaction          8.324245 eV  (added to PSCEN)


 Broyden mixing:
  rms(total) = 0.42731E+01    rms(broyden)= 0.42730E+01
  rms(prec ) = 0.53267E+01
  weight for this iteration     100.00

 eigenvalues of (default mixing * dielectric matrix)
  average eigenvalue GAMMA=   0.7128
  2.1382  0.6908  0.3733  0.1406  0.2210

 Free energy of the ion-electron system (eV)
  ---------------------------------------------------
  alpha Z        PSCENC =      1504.35303691
  Ewald energy   TEWEN  =    248270.24149623
  -Hartree energ DENC   =   -297513.24442622
  -exchange      EXHF   =         0.00000000
  -V(xc)+E(xc)   XCENC  =       251.71807754
  PAW double counting   =     57909.96821452   -56288.21803628
  entropy T*S    EENTRO =        -0.42615728
  eigenvalues    EBANDS =     -2064.79778213
  atomic energy  EATOM  =     47527.87699037
  Solvation  Ediel_sol  =         0.00000000
  ---------------------------------------------------
  free energy    TOTEN  =      -402.52858635 eV

  energy without entropy =     -402.10242907  energy(sigma->0) =     -402.31550771


--------------------------------------------------------------------------------------------------------




--------------------------------------- Iteration      1(  11)  ---------------------------------------


    POTLOK:  cpu time    0.0283: real time    0.0286
    SETDIJ:  cpu time    0.0036: real time    0.0036
    EDDIAG:  cpu time    1.2337: real time    1.2349
  RMM-DIIS:  cpu time    3.5300: real time    3.5337
    ORTHCH:  cpu time    0.5597: real time    0.5599
       DOS:  cpu time    0.0009: real time    0.0009
    CHARGE:  cpu time    0.1551: real time    0.1554
    MIXING:  cpu time    0.0011: real time    0.0011
    --------------------------------------------
      LOOP:  cpu time    5.5123: real time    5.5181

 eigenvalue-minimisations  :  3946
 total energy-change (2. order) : 0.7675246E+01  (-0.1374998E+01)
 number of electron     651.9999836 magnetization 
 augmentation part      200.0856234 magnetization 

 DIPCOR: dipole corrections for dipol
 direction  3 min pos   179,
 dipolmoment           0.000000      0.000000     -0.659612 electrons x Angstroem
 Tr[quadrupol]    -12195.308579

 energy correction for charged system         0.000000 eV
 dipol+quadrupol energy correction           -0.014736 eV
 added-field ion interaction          4.307873 eV  (added to PSCEN)


 Broyden mixing:
  rms(total) = 0.35205E+01    rms(broyden)= 0.35204E+01
  rms(prec ) = 0.50207E+01
  weight for this iteration     100.00

 eigenvalues of (default mixing * dielectric matrix)
  average eigenvalue GAMMA=   0.6832
  2.2593  0.7579  0.3721  0.3721  0.1566  0.1810

 Free energy of the ion-electron system (eV)
  ---------------------------------------------------
  alpha Z        PSCENC =      1500.32472723
  Ewald energy   TEWEN  =    248270.24149623
  -Hartree energ DENC   =   -297549.79987964
  -exchange      EXHF   =         0.00000000
  -V(xc)+E(xc)   XCENC  =       252.86750196
  PAW double counting   =     58103.04741117   -56480.46759556
  entropy T*S    EENTRO =        -0.48888449
  eigenvalues    EBANDS =     -2018.45510712
  atomic energy  EATOM  =     47527.87699037
  Solvation  Ediel_sol  =         0.00000000
  ---------------------------------------------------
  free energy    TOTEN  =      -394.85333986 eV

  energy without entropy =     -394.36445537  energy(sigma->0) =     -394.60889761


--------------------------------------------------------------------------------------------------------




--------------------------------------- Iteration      1(  12)  ---------------------------------------


    POTLOK:  cpu time    0.0281: real time    0.0283
    SETDIJ:  cpu time    0.0035: real time    0.0035
    EDDIAG:  cpu time    1.2342: real time    1.2353
  RMM-DIIS:  cpu time    3.5116: real time    3.5152
    ORTHCH:  cpu time    0.5623: real time    0.5625
       DOS:  cpu time    0.0010: real time    0.0010
    CHARGE:  cpu time    0.1473: real time    0.1475
    MIXING:  cpu time    0.0012: real time    0.0012
    --------------------------------------------
      LOOP:  cpu time    5.4891: real time    5.4945

 eigenvalue-minimisations  :  3940
 total energy-change (2. order) : 0.7773167E+01  (-0.6112715E+00)
 number of electron     651.9999785 magnetization 
 augmentation part      200.2201010 magnetization 

 DIPCOR: dipole corrections for dipol
 direction  3 min pos   183,
 dipolmoment           0.000000      0.000000      0.247597 electrons x Angstroem
 Tr[quadrupol]    -12196.460978

 energy correction for charged system         0.000000 eV
 dipol+quadrupol energy correction           -0.002076 eV
 added-field ion interaction          2.288253 eV  (added to PSCEN)


 Broyden mixing:
  rms(total) = 0.16795E+01    rms(broyden)= 0.16793E+01
  rms(prec ) = 0.19242E+01
  weight for this iteration     100.00

 eigenvalues of (default mixing * dielectric matrix)
  average eigenvalue GAMMA=   0.6352
  2.0925  0.9600  0.3827  0.3827  0.3207  0.1539  0.1539

 Free energy of the ion-electron system (eV)
  ---------------------------------------------------
  alpha Z        PSCENC =      1498.31776667
  Ewald energy   TEWEN  =    248270.24149623
  -Hartree energ DENC   =   -297582.16367921
  -exchange      EXHF   =         0.00000000
  -V(xc)+E(xc)   XCENC  =       252.61869668
  PAW double counting   =     58381.37339553   -56762.61887129
  entropy T*S    EENTRO =        -0.52657586
  eigenvalues    EBANDS =     -1972.19939243
  atomic energy  EATOM  =     47527.87699037
  Solvation  Ediel_sol  =         0.00000000
  ---------------------------------------------------
  free energy    TOTEN  =      -387.08017330 eV

  energy without entropy =     -386.55359744  energy(sigma->0) =     -386.81688537


--------------------------------------------------------------------------------------------------------




--------------------------------------- Iteration      1(  13)  ---------------------------------------


    POTLOK:  cpu time    0.0283: real time    0.0285
    SETDIJ:  cpu time    0.0036: real time    0.0037
    EDDIAG:  cpu time    1.2445: real time    1.2455
  RMM-DIIS:  cpu time    3.5020: real time    3.5057
    ORTHCH:  cpu time    0.5618: real time    0.5620
       DOS:  cpu time    0.0009: real time    0.0009
    CHARGE:  cpu time    0.1486: real time    0.1488
    MIXING:  cpu time    0.0013: real time    0.0013
    --------------------------------------------
      LOOP:  cpu time    5.4910: real time    5.4964

 eigenvalue-minimisations  :  3937
 total energy-change (2. order) : 0.2387850E+01  (-0.2500987E+00)
 number of electron     651.9999807 magnetization 
 augmentation part      199.8699380 magnetization 

 DIPCOR: dipole corrections for dipol
 direction  3 min pos   177,
 dipolmoment           0.000000      0.000000     -0.176167 electrons x Angstroem
 Tr[quadrupol]    -12196.371705

 energy correction for charged system         0.000000 eV
 dipol+quadrupol energy correction           -0.001051 eV
 added-field ion interaction          2.539849 eV  (added to PSCEN)


 Broyden mixing:
  rms(total) = 0.11128E+01    rms(broyden)= 0.11127E+01
  rms(prec ) = 0.13400E+01
  weight for this iteration     100.00

 eigenvalues of (default mixing * dielectric matrix)
  average eigenvalue GAMMA=   0.5968
  2.0612  0.8924  0.4528  0.4528  0.3025  0.3025  0.1550  0.1550

 Free energy of the ion-electron system (eV)
  ---------------------------------------------------
  alpha Z        PSCENC =      1498.57038798
  Ewald energy   TEWEN  =    248270.24149623
  -Hartree energ DENC   =   -297586.24963256
  -exchange      EXHF   =         0.00000000
  -V(xc)+E(xc)   XCENC  =       252.83882179
  PAW double counting   =     58187.08248921   -56565.17958209
  entropy T*S    EENTRO =        -0.56377603
  eigenvalues    EBANDS =     -1969.30951845
  atomic energy  EATOM  =     47527.87699037
  Solvation  Ediel_sol  =         0.00000000
  ---------------------------------------------------
  free energy    TOTEN  =      -384.69232356 eV

  energy without entropy =     -384.12854752  energy(sigma->0) =     -384.41043554


--------------------------------------------------------------------------------------------------------




--------------------------------------- Iteration      1(  14)  ---------------------------------------


    POTLOK:  cpu time    0.0305: real time    0.0498
    SETDIJ:  cpu time    0.0036: real time    0.0037
    EDDIAG:  cpu time    1.2484: real time    1.2496
  RMM-DIIS:  cpu time    3.5124: real time    3.5169
    ORTHCH:  cpu time    0.5623: real time    0.5626
       DOS:  cpu time    0.0009: real time    0.0009
    CHARGE:  cpu time    0.1485: real time    0.1487
    MIXING:  cpu time    0.0013: real time    0.0013
    --------------------------------------------
      LOOP:  cpu time    5.5079: real time    5.5334

 eigenvalue-minimisations  :  3938
 total energy-change (2. order) : 0.5568645E+00  (-0.5944213E-01)
 number of electron     651.9999800 magnetization 
 augmentation part      199.9067044 magnetization 

 DIPCOR: dipole corrections for dipol
 direction  3 min pos   186,
 dipolmoment           0.000000      0.000000     -0.002729 electrons x Angstroem
 Tr[quadrupol]    -12196.124062

 energy correction for charged system         0.000000 eV
 dipol+quadrupol energy correction           -0.000000 eV
 added-field ion interaction         -0.057514 eV  (added to PSCEN)


 Broyden mixing:
  rms(total) = 0.76573E+00    rms(broyden)= 0.76572E+00
  rms(prec ) = 0.86707E+00
  weight for this iteration     100.00

 eigenvalues of (default mixing * dielectric matrix)
  average eigenvalue GAMMA=   0.5847
  2.0690  0.7282  0.7282  0.5385  0.3378  0.3378  0.2205  0.1512  0.1512

 Free energy of the ion-electron system (eV)
  ---------------------------------------------------
  alpha Z        PSCENC =      1495.97407592
  Ewald energy   TEWEN  =    248270.24149623
  -Hartree energ DENC   =   -297584.18930721
  -exchange      EXHF   =         0.00000000
  -V(xc)+E(xc)   XCENC  =       252.82997458
  PAW double counting   =     58124.84854035   -56502.42885408
  entropy T*S    EENTRO =        -0.56790767
  eigenvalues    EBANDS =     -1968.72046754
  atomic energy  EATOM  =     47527.87699037
  Solvation  Ediel_sol  =         0.00000000
  ---------------------------------------------------
  free energy    TOTEN  =      -384.13545905 eV

  energy without entropy =     -383.56755138  energy(sigma->0) =     -383.85150522


--------------------------------------------------------------------------------------------------------




--------------------------------------- Iteration      1(  15)  ---------------------------------------


    POTLOK:  cpu time    0.0285: real time    0.0287
    SETDIJ:  cpu time    0.0036: real time    0.0036
    EDDIAG:  cpu time    1.2349: real time    1.2359
  RMM-DIIS:  cpu time    3.5294: real time    3.5336
    ORTHCH:  cpu time    0.5608: real time    0.5610
       DOS:  cpu time    0.0009: real time    0.0009
    CHARGE:  cpu time    0.1483: real time    0.1485
    MIXING:  cpu time    0.0013: real time    0.0013
    --------------------------------------------
      LOOP:  cpu time    5.5078: real time    5.5136

 eigenvalue-minimisations  :  3947
 total energy-change (2. order) :-0.1962766E+00  (-0.3104475E-01)
 number of electron     651.9999793 magnetization 
 augmentation part      199.9548398 magnetization 

 DIPCOR: dipole corrections for dipol
 direction  3 min pos   190,
 dipolmoment           0.000000      0.000000      0.134629 electrons x Angstroem
 Tr[quadrupol]    -12196.500992

 energy correction for charged system         0.000000 eV
 dipol+quadrupol energy correction           -0.000614 eV
 added-field ion interaction          4.960293 eV  (added to PSCEN)


 Broyden mixing:
  rms(total) = 0.75104E+00    rms(broyden)= 0.75103E+00
  rms(prec ) = 0.10365E+01
  weight for this iteration     100.00

 eigenvalues of (default mixing * dielectric matrix)
  average eigenvalue GAMMA=   0.6051
  2.0892  0.9492  0.9492  0.5216  0.4020  0.4020  0.2516  0.1534  0.1534  0.1797

 Free energy of the ion-electron system (eV)
  ---------------------------------------------------
  alpha Z        PSCENC =      1500.99126918
  Ewald energy   TEWEN  =    248270.24149623
  -Hartree energ DENC   =   -297587.15783604
  -exchange      EXHF   =         0.00000000
  -V(xc)+E(xc)   XCENC  =       252.83574105
  PAW double counting   =     58111.93034584   -56489.50163255
  entropy T*S    EENTRO =        -0.57893113
  eigenvalues    EBANDS =     -1970.96917862
  atomic energy  EATOM  =     47527.87699037
  Solvation  Ediel_sol  =         0.00000000
  ---------------------------------------------------
  free energy    TOTEN  =      -384.33173567 eV

  energy without entropy =     -383.75280455  energy(sigma->0) =     -384.04227011


--------------------------------------------------------------------------------------------------------




--------------------------------------- Iteration      1(  16)  ---------------------------------------


    POTLOK:  cpu time    0.0312: real time    0.0387
    SETDIJ:  cpu time    0.0037: real time    0.0037
    EDDIAG:  cpu time    1.2392: real time    1.2404
  RMM-DIIS:  cpu time    3.5209: real time    3.5257
    ORTHCH:  cpu time    0.5648: real time    0.5650
       DOS:  cpu time    0.0010: real time    0.0010
    CHARGE:  cpu time    0.1478: real time    0.1480
    MIXING:  cpu time    0.0015: real time    0.0015
    --------------------------------------------
      LOOP:  cpu time    5.5101: real time    5.5240

 eigenvalue-minimisations  :  3941
 total energy-change (2. order) : 0.3597139E+00  (-0.2636409E-01)
 number of electron     651.9999798 magnetization 
 augmentation part      199.9074517 magnetization 

 DIPCOR: dipole corrections for dipol
 direction  3 min pos   180,
 dipolmoment           0.000000      0.000000      0.040377 electrons x Angstroem
 Tr[quadrupol]    -12196.533653

 energy correction for charged system         0.000000 eV
 dipol+quadrupol energy correction           -0.000055 eV
 added-field ion interaction         -0.104483 eV  (added to PSCEN)


 Broyden mixing:
  rms(total) = 0.57040E+00    rms(broyden)= 0.57040E+00
  rms(prec ) = 0.72103E+00
  weight for this iteration     100.00

 eigenvalues of (default mixing * dielectric matrix)
  average eigenvalue GAMMA=   0.6146
  2.1012  1.0624  1.0624  0.5071  0.5071  0.4875  0.2771  0.2771  0.1530  0.1530
  0.1730

 Free energy of the ion-electron system (eV)
  ---------------------------------------------------
  alpha Z        PSCENC =      1495.92705157
  Ewald energy   TEWEN  =    248270.24149623
  -Hartree energ DENC   =   -297596.96854325
  -exchange      EXHF   =         0.00000000
  -V(xc)+E(xc)   XCENC  =       252.93027945
  PAW double counting   =     58120.54731564   -56497.90829215
  entropy T*S    EENTRO =        -0.58250481
  eigenvalues    EBANDS =     -1956.03581486
  atomic energy  EATOM  =     47527.87699037
  Solvation  Ediel_sol  =         0.00000000
  ---------------------------------------------------
  free energy    TOTEN  =      -383.97202182 eV

  energy without entropy =     -383.38951701  energy(sigma->0) =     -383.68076941


--------------------------------------------------------------------------------------------------------




--------------------------------------- Iteration      1(  17)  ---------------------------------------


    POTLOK:  cpu time    0.0294: real time    0.0308
    SETDIJ:  cpu time    0.0036: real time    0.0037
    EDDIAG:  cpu time    1.2352: real time    1.2366
  RMM-DIIS:  cpu time    3.5278: real time    3.5325
    ORTHCH:  cpu time    0.5607: real time    0.5610
       DOS:  cpu time    0.0009: real time    0.0009
    CHARGE:  cpu time    0.1553: real time    0.1556
    MIXING:  cpu time    0.0016: real time    0.0016
    --------------------------------------------
      LOOP:  cpu time    5.5144: real time    5.5227

 eigenvalue-minimisations  :  3946
 total energy-change (2. order) : 0.3886677E-01  (-0.1131593E-01)
 number of electron     651.9999798 magnetization 
 augmentation part      199.8453888 magnetization 

 DIPCOR: dipole corrections for dipol
 direction  3 min pos   175,
 dipolmoment           0.000000      0.000000      0.032779 electrons x Angstroem
 Tr[quadrupol]    -12196.752579

 energy correction for charged system         0.000000 eV
 dipol+quadrupol energy correction           -0.000036 eV
 added-field ion interaction         -0.731093 eV  (added to PSCEN)


 Broyden mixing:
  rms(total) = 0.52606E+00    rms(broyden)= 0.52606E+00
  rms(prec ) = 0.66349E+00
  weight for this iteration     100.00

 eigenvalues of (default mixing * dielectric matrix)
  average eigenvalue GAMMA=   0.6263
  2.0670  1.1812  1.1812  0.7487  0.6369  0.3427  0.3427  0.3357  0.1529  0.1529
  0.1984  0.1748

 Free energy of the ion-electron system (eV)
  ---------------------------------------------------
  alpha Z        PSCENC =      1495.30046063
  Ewald energy   TEWEN  =    248270.24149623
  -Hartree energ DENC   =   -297606.02127011
  -exchange      EXHF   =         0.00000000
  -V(xc)+E(xc)   XCENC  =       253.03174027
  PAW double counting   =     58132.59814473   -56509.64800412
  entropy T*S    EENTRO =        -0.58567161
  eigenvalues    EBANDS =     -1946.72704143
  atomic energy  EATOM  =     47527.87699037
  Solvation  Ediel_sol  =         0.00000000
  ---------------------------------------------------
  free energy    TOTEN  =      -383.93315505 eV

  energy without entropy =     -383.34748344  energy(sigma->0) =     -383.64031925


--------------------------------------------------------------------------------------------------------




--------------------------------------- Iteration      1(  18)  ---------------------------------------


    POTLOK:  cpu time    0.0299: real time    0.0318
    SETDIJ:  cpu time    0.0036: real time    0.0036
    EDDIAG:  cpu time    1.2391: real time    1.2405
  RMM-DIIS:  cpu time    3.5112: real time    3.5173
    ORTHCH:  cpu time    0.5610: real time    0.5614
       DOS:  cpu time    0.0009: real time    0.0009
    CHARGE:  cpu time    0.1489: real time    0.1491
    MIXING:  cpu time    0.0017: real time    0.0017
    --------------------------------------------
      LOOP:  cpu time    5.4963: real time    5.5063

 eigenvalue-minimisations  :  3940
 total energy-change (2. order) : 0.1603536E+00  (-0.9792028E-02)
 number of electron     651.9999801 magnetization 
 augmentation part      199.7773644 magnetization 

 DIPCOR: dipole corrections for dipol
 direction  3 min pos   173,
 dipolmoment           0.000000      0.000000     -0.015158 electrons x Angstroem
 Tr[quadrupol]    -12196.897499

 energy correction for charged system         0.000000 eV
 dipol+quadrupol energy correction           -0.000008 eV
 added-field ion interaction          0.457612 eV  (added to PSCEN)


 Broyden mixing:
  rms(total) = 0.35225E+00    rms(broyden)= 0.35224E+00
  rms(prec ) = 0.39929E+00
  weight for this iteration     100.00

 eigenvalues of (default mixing * dielectric matrix)
  average eigenvalue GAMMA=   0.6522
  1.9485  1.5088  1.5088  0.7455  0.7455  0.3699  0.3699  0.3691  0.2412  0.2024
  0.1531  0.1531  0.1621

 Free energy of the ion-electron system (eV)
  ---------------------------------------------------
  alpha Z        PSCENC =      1496.48919424
  Ewald energy   TEWEN  =    248270.24149623
  -Hartree energ DENC   =   -297612.80781200
  -exchange      EXHF   =         0.00000000
  -V(xc)+E(xc)   XCENC  =       253.18041963
  PAW double counting   =     58129.13473505   -56505.58282247
  entropy T*S    EENTRO =        -0.59213701
  eigenvalues    EBANDS =     -1941.71286554
  atomic energy  EATOM  =     47527.87699037
  Solvation  Ediel_sol  =         0.00000000
  ---------------------------------------------------
  free energy    TOTEN  =      -383.77280150 eV

  energy without entropy =     -383.18066449  energy(sigma->0) =     -383.47673300


--------------------------------------------------------------------------------------------------------




--------------------------------------- Iteration      1(  19)  ---------------------------------------


    POTLOK:  cpu time    0.0309: real time    0.0330
    SETDIJ:  cpu time    0.0037: real time    0.0037
    EDDIAG:  cpu time    1.2412: real time    1.2426
  RMM-DIIS:  cpu time    3.5376: real time    3.5417
    ORTHCH:  cpu time    0.5592: real time    0.5595
       DOS:  cpu time    0.0009: real time    0.0009
    CHARGE:  cpu time    0.1486: real time    0.1490
    MIXING:  cpu time    0.0018: real time    0.0018
    --------------------------------------------
      LOOP:  cpu time    5.5239: real time    5.5321

 eigenvalue-minimisations  :  3942
 total energy-change (2. order) : 0.5485788E-01  (-0.6847054E-02)
 number of electron     651.9999802 magnetization 
 augmentation part      199.7502210 magnetization 

 DIPCOR: dipole corrections for dipol
 direction  3 min pos   173,
 dipolmoment           0.000000      0.000000     -0.028733 electrons x Angstroem
 Tr[quadrupol]    -12196.985640

 energy correction for charged system         0.000000 eV
 dipol+quadrupol energy correction           -0.000028 eV
 added-field ion interaction          0.867444 eV  (added to PSCEN)


 Broyden mixing:
  rms(total) = 0.25726E+00    rms(broyden)= 0.25725E+00
[...]
    FORHAR:  cpu time    0.0138: real time    0.0138
    MIXING:  cpu time    0.0010: real time    0.0010
    OFIELD:  cpu time    0.0000: real time    0.0000

 ---------------------------------------------------------------------------------------------

         DFTD3 V3.0 Rev 1        
 Edisp (eV)  -35.69713

 E6    (eV) :   -13.4349
 E8    (eV) :   -22.2622
 % E8        : 62.36
    FORVDW:  cpu time    0.1887: real time    0.1900

  FORCE on cell =-STRESS in cart. coord.  units (eV):
  Direction    XX          YY          ZZ          XY          YZ          ZX
  --------------------------------------------------------------------------------------
  Alpha Z  1496.03159  1496.03159  1496.03159
  Ewald  289047.99623288828.51079************    -0.02444    -0.01315   -63.58580
  Hartree299282.46534299280.76993************    -0.00902    -0.00023   -16.56139
  E(xc)   -2897.05445 -2897.56000 -2915.89957    -0.00011    -0.00008    -0.31318
  Local  ************************609152.88717     0.03012     0.00973    69.32407
  n-local   325.44187   283.57791   254.54003    -0.00287    -0.00368    -5.55194
  augment  3331.69335  3353.32385  3448.60795     0.00124     0.00145     5.06568
  Kinetic  9463.44069  9496.74346  9762.04081     0.00284     0.00285    10.34681
  Fock        0.00000     0.00000     0.00000     0.00000     0.00000     0.00000
  vdW       -46.54314   -45.80142   -29.93043     0.00010    -0.00001     0.60257
  -------------------------------------------------------------------------------------
  Total     -51.76236   -73.32700     0.34114    -0.00214    -0.00312    -0.67318
  in kB     -31.04230   -43.97480     0.20459    -0.00129    -0.00187    -0.40371
  external pressure =      -24.94 kB  Pullay stress =        0.00 kB


 VOLUME and BASIS-vectors are now :
 -----------------------------------------------------------------------------
  energy-cutoff  :      450.00
  volume of cell :     2671.60
      direct lattice vectors                 reciprocal lattice vectors
     9.523436180  0.000000000  0.000000000     0.105004116  0.000000000  0.000000000
     0.000000000 11.221139680  0.000000000     0.000000000  0.089117508  0.000000000
     0.000000000  0.000000000 25.000000000     0.000000000  0.000000000  0.040000000

  length of vectors
     9.523436180 11.221139680 25.000000000     0.105004116  0.089117508  0.040000000


 FORCES acting on ions
    electron-ion (+dipol)            ewald-force                    non-local-force                 convergence-correction
 -----------------------------------------------------------------------------------------------
   -.125E+01 -.502E-01 0.261E+04   0.109E+01 0.510E-01 -.261E+04   0.129E+00 -.551E-02 -.107E+01   -.305E-02 0.393E-02 -.144E-01
   0.300E+01 -.707E+00 0.921E+03   -.305E+01 0.655E+00 -.921E+03   0.121E-01 0.104E+00 -.454E+00   0.127E-01 0.275E-02 -.183E-01
   0.112E+02 0.143E+02 -.795E+03   -.108E+02 -.137E+02 0.796E+03   -.376E+00 -.633E+00 -.238E+00   0.602E-02 0.106E-03 -.330E-02
   -.456E+00 -.223E+00 0.261E+04   0.388E+00 0.162E+00 -.261E+04   0.495E-01 0.192E-01 -.115E+01   0.615E-02 0.542E-02 -.116E-01
   -.267E+01 -.957E+00 0.918E+03   0.270E+01 0.945E+00 -.918E+03   0.273E-01 0.492E-01 -.379E+00   0.483E-03 0.671E-02 -.213E-01
   -.320E+01 0.811E+01 -.790E+03   0.317E+01 -.798E+01 0.790E+03   0.279E-01 -.138E+00 0.730E+00   0.100E-01 0.153E-02 -.759E-02
   0.193E+02 0.145E+02 -.254E+04   -.198E+02 -.145E+02 0.254E+04   0.470E+00 0.422E-01 0.853E+00   -.446E-02 0.121E-02 0.932E-02
   0.553E+02 0.999E+02 -.245E+04   -.564E+02 -.102E+03 0.245E+04   0.114E+01 0.249E+01 0.507E+00   0.468E-02 0.455E-03 0.393E-02
   -.767E+00 -.955E-01 0.261E+04   0.853E+00 0.587E-01 -.261E+04   -.371E-01 0.724E-02 -.112E+01   -.285E-02 0.464E-02 -.114E-01
   0.838E+00 -.122E+01 0.921E+03   -.901E+00 0.119E+01 -.920E+03   0.415E-02 0.106E+00 -.297E+00   0.106E-01 0.404E-02 -.207E-01
   0.110E+02 0.125E+02 -.799E+03   -.106E+02 -.119E+02 0.799E+03   -.403E+00 -.575E+00 -.288E-01   0.424E-02 0.194E-02 -.764E-02
   -.690E+00 -.217E-02 0.261E+04   0.642E+00 0.165E-02 -.261E+04   0.371E-01 0.612E-05 -.112E+01   0.523E-02 0.494E-03 -.968E-02
   -.229E+01 -.419E-02 0.920E+03   0.220E+01 0.347E-02 -.920E+03   0.108E+00 -.271E-05 -.302E+00   -.374E-03 0.753E-03 -.220E-01
   -.474E+01 -.588E-02 -.801E+03   0.471E+01 0.514E-02 0.800E+03   0.314E-01 -.108E-03 0.881E+00   0.954E-02 0.940E-03 -.114E-01
   0.413E+02 0.122E+02 -.250E+04   -.420E+02 -.122E+02 0.250E+04   0.689E+00 0.730E-01 0.123E+01   -.382E-02 0.910E-03 0.658E-02
   0.108E+03 0.397E-02 -.240E+04   -.111E+03 -.421E-02 0.240E+04   0.293E+01 -.203E-05 0.957E+00   0.438E-02 0.197E-03 -.725E-02
   -.767E+00 0.933E-01 0.261E+04   0.853E+00 -.571E-01 -.261E+04   -.371E-01 -.725E-02 -.112E+01   -.287E-02 -.396E-02 -.111E-01
   0.837E+00 0.121E+01 0.921E+03   -.900E+00 -.117E+01 -.920E+03   0.410E-02 -.106E+00 -.297E+00   0.107E-01 -.281E-02 -.204E-01
   0.110E+02 -.125E+02 -.799E+03   -.106E+02 0.120E+02 0.799E+03   -.403E+00 0.575E+00 -.290E-01   0.376E-02 -.592E-03 -.762E-02
   -.457E+00 0.223E+00 0.261E+04   0.389E+00 -.163E+00 -.261E+04   0.495E-01 -.191E-01 -.115E+01   0.622E-02 -.539E-02 -.111E-01
   -.267E+01 0.958E+00 0.918E+03   0.270E+01 -.945E+00 -.918E+03   0.274E-01 -.492E-01 -.379E+00   0.487E-03 -.668E-02 -.210E-01
   -.320E+01 -.812E+01 -.790E+03   0.317E+01 0.799E+01 0.790E+03   0.280E-01 0.138E+00 0.730E+00   0.102E-01 -.129E-02 -.786E-02
   0.413E+02 -.122E+02 -.250E+04   -.420E+02 0.122E+02 0.250E+04   0.688E+00 -.743E-01 0.123E+01   -.433E-02 -.314E-03 0.592E-02
   0.553E+02 -.999E+02 -.245E+04   -.564E+02 0.102E+03 0.245E+04   0.114E+01 -.249E+01 0.507E+00   0.431E-02 -.114E-02 0.382E-02
   -.125E+01 0.524E-01 0.261E+04   0.109E+01 -.525E-01 -.261E+04   0.129E+00 0.552E-02 -.107E+01   -.308E-02 -.461E-02 -.140E-01
   0.299E+01 0.720E+00 0.921E+03   -.305E+01 -.667E+00 -.921E+03   0.122E-01 -.104E+00 -.454E+00   0.129E-01 -.398E-02 -.180E-01
   0.112E+02 -.143E+02 -.795E+03   -.108E+02 0.137E+02 0.796E+03   -.376E+00 0.631E+00 -.238E+00   0.620E-02 -.127E-02 -.348E-02
   -.301E+00 0.208E-02 0.261E+04   0.148E+00 -.155E-02 -.261E+04   0.826E-01 -.266E-05 -.118E+01   0.709E-02 -.516E-03 -.129E-01
   -.395E+01 0.224E-02 0.915E+03   0.405E+01 -.147E-02 -.915E+03   -.437E-01 0.969E-04 -.492E+00   0.133E-02 -.784E-03 -.201E-01
   0.266E+00 0.126E-01 -.785E+03   -.341E+00 -.117E-01 0.784E+03   0.534E-01 -.244E-04 0.594E+00   0.104E-01 -.985E-03 -.441E-02
   0.193E+02 -.145E+02 -.254E+04   -.198E+02 0.145E+02 0.254E+04   0.468E+00 -.428E-01 0.854E+00   -.451E-02 -.210E-02 0.891E-02
   0.712E+00 -.184E-01 -.253E+04   -.794E+00 0.185E-01 0.253E+04   0.681E-01 0.867E-03 0.934E+00   0.542E-02 -.520E-03 0.839E-02
   -.294E+00 -.372E+00 0.261E+04   0.295E+00 0.348E+00 -.261E+04   0.308E-01 0.152E-01 -.114E+01   0.339E-02 0.280E-02 -.717E-02
   -.141E+01 -.259E+00 0.922E+03   0.149E+01 0.301E+00 -.921E+03   -.204E-01 -.133E-01 -.619E+00   -.130E-01 0.377E-02 -.187E-01
   -.634E+01 0.365E+01 -.791E+03   0.625E+01 -.361E+01 0.790E+03   0.910E-01 -.479E-01 0.622E+00   -.846E-02 0.963E-03 -.518E-02
   -.660E+00 -.476E+00 0.261E+04   0.650E+00 0.498E+00 -.261E+04   0.550E-01 -.149E-01 -.119E+01   -.640E-02 0.523E-02 -.818E-02
   -.664E+00 -.313E+01 0.921E+03   0.707E+00 0.319E+01 -.920E+03   -.812E-01 0.173E-01 -.400E+00   -.319E-03 0.418E-02 -.176E-01
   0.289E+01 0.608E+01 -.785E+03   -.284E+01 -.598E+01 0.784E+03   -.423E-01 -.107E+00 0.668E+00   -.103E-01 0.354E-02 -.472E-02
   -.183E+02 0.280E+02 -.251E+04   0.189E+02 -.286E+02 0.251E+04   -.588E+00 0.594E+00 0.133E+01   0.263E-02 0.270E-03 0.334E-02
   -.133E+02 0.155E+02 -.254E+04   0.137E+02 -.158E+02 0.254E+04   -.334E+00 0.323E+00 0.944E+00   -.644E-02 0.127E-02 0.360E-02
   -.593E+00 -.408E+00 0.261E+04   0.592E+00 0.386E+00 -.261E+04   0.189E-01 0.821E-02 -.114E+01   0.306E-02 0.357E-02 -.581E-02
   0.366E+01 -.401E+00 0.920E+03   -.372E+01 0.443E+00 -.920E+03   0.658E-02 -.144E-01 -.518E+00   -.106E-01 0.510E-02 -.199E-01
   -.151E+02 0.339E+01 -.803E+03   0.143E+02 -.337E+01 0.803E+03   0.758E+00 -.298E-01 -.276E+00   -.285E-02 0.187E-02 -.946E-02
   -.363E+00 -.164E-02 0.261E+04   0.372E+00 0.114E-02 -.261E+04   0.517E-01 -.476E-05 -.118E+01   -.550E-02 0.510E-03 -.640E-02
   -.104E+01 -.661E-02 0.917E+03   0.111E+01 0.570E-02 -.917E+03   -.107E+00 0.607E-04 -.189E+00   0.491E-03 0.921E-03 -.190E-01
   0.559E+01 0.292E-02 -.777E+03   -.561E+01 -.389E-02 0.776E+03   0.334E-01 -.156E-03 0.622E+00   -.896E-02 0.989E-03 -.710E-02
   -.117E+03 0.220E+02 -.244E+04   0.120E+03 -.223E+02 0.244E+04   -.255E+01 0.300E+00 0.711E+00   0.417E-02 0.112E-02 -.368E-03
   -.275E+02 0.522E-02 -.253E+04   0.277E+02 -.591E-02 0.253E+04   -.273E+00 0.360E-04 0.101E+01   -.369E-02 0.712E-03 0.246E-02
   -.593E+00 0.405E+00 0.261E+04   0.591E+00 -.383E+00 -.261E+04   0.189E-01 -.821E-02 -.114E+01   0.307E-02 -.280E-02 -.535E-02
   0.367E+01 0.396E+00 0.920E+03   -.372E+01 -.439E+00 -.920E+03   0.653E-02 0.144E-01 -.519E+00   -.107E-01 -.390E-02 -.196E-01
   -.151E+02 -.340E+01 -.803E+03   0.143E+02 0.337E+01 0.803E+03   0.758E+00 0.297E-01 -.276E+00   -.286E-02 -.352E-03 -.967E-02
   -.660E+00 0.476E+00 0.261E+04   0.650E+00 -.498E+00 -.261E+04   0.550E-01 0.149E-01 -.119E+01   -.647E-02 -.520E-02 -.757E-02
   -.655E+00 0.312E+01 0.921E+03   0.698E+00 -.319E+01 -.920E+03   -.814E-01 -.173E-01 -.399E+00   -.347E-03 -.413E-02 -.171E-01
   0.289E+01 -.610E+01 -.785E+03   -.284E+01 0.600E+01 0.784E+03   -.425E-01 0.107E+00 0.668E+00   -.105E-01 -.362E-02 -.491E-02
   -.117E+03 -.220E+02 -.244E+04   0.120E+03 0.223E+02 0.244E+04   -.256E+01 -.300E+00 0.711E+00   0.426E-02 -.173E-03 -.880E-03
   -.133E+02 -.155E+02 -.254E+04   0.137E+02 0.158E+02 0.254E+04   -.334E+00 -.324E+00 0.942E+00   -.643E-02 -.151E-02 0.315E-02
   -.294E+00 0.375E+00 0.261E+04   0.295E+00 -.350E+00 -.261E+04   0.308E-01 -.152E-01 -.114E+01   0.340E-02 -.356E-02 -.670E-02
   -.141E+01 0.265E+00 0.922E+03   0.149E+01 -.305E+00 -.921E+03   -.203E-01 0.133E-01 -.619E+00   -.132E-01 -.497E-02 -.184E-01
   -.633E+01 -.364E+01 -.791E+03   0.624E+01 0.360E+01 0.791E+03   0.909E-01 0.480E-01 0.622E+00   -.857E-02 -.234E-02 -.536E-02
   -.942E+00 0.186E-02 0.261E+04   0.913E+00 -.134E-02 -.261E+04   0.460E-01 -.300E-06 -.120E+01   -.737E-02 -.535E-03 -.934E-02
   0.117E+00 0.811E-02 0.923E+03   -.112E+00 -.719E-02 -.923E+03   -.602E-01 0.110E-05 -.568E+00   -.111E-02 -.976E-03 -.157E-01
   0.445E+00 0.119E-01 -.792E+03   -.261E+00 -.111E-01 0.792E+03   -.180E+00 -.604E-04 0.731E+00   -.124E-01 -.855E-03 -.273E-02
   -.183E+02 -.280E+02 -.251E+04   0.189E+02 0.286E+02 0.251E+04   -.588E+00 -.595E+00 0.133E+01   0.267E-02 -.110E-02 0.287E-02
   0.923E+00 0.115E-02 -.254E+04   -.517E+00 -.572E-03 0.254E+04   -.411E+00 0.714E-04 0.873E+00   -.830E-02 -.610E-03 0.772E-02
   -.340E+01 0.413E+02 -.188E+04   0.339E+01 -.408E+02 0.191E+04   -.942E-02 -.446E+00 -.300E+02   0.389E-02 -.209E-02 0.604E-02
   -.341E+01 -.413E+02 -.188E+04   0.340E+01 0.408E+02 0.191E+04   -.104E-01 0.447E+00 -.300E+02   0.400E-02 0.269E-02 0.577E-02
 -----------------------------------------------------------------------------------------------
   -.705E+00 -.137E-02 0.649E+02   -.625E-12 0.284E-13 0.364E-11   0.491E+00 -.129E-02 -.644E+02   -.600E-02 -.145E-03 -.490E+00
 
 
 POSITION                                       TOTAL-FORCE (eV/Angst)
 -----------------------------------------------------------------------------------
      0.00000      0.00000      0.00000        -0.036821     -0.001062     -0.112941
      3.17448      0.00000      2.29051        -0.031120      0.052194     -0.021193
      1.60139      0.02877      4.55476        -0.003910     -0.003175     -0.000817
      2.38086      1.40264      0.00000        -0.014798     -0.036583     -0.000307
      0.79362      1.40264      2.29051         0.059395      0.040852      0.095153
      3.96931      1.41319      4.54454         0.000671     -0.001166     -0.003384
      9.48997     11.19927      6.83246        -0.000430     -0.001361     -0.001320
      2.32738      1.26687      6.86895        -0.002312     -0.000483     -0.001784
      0.00000      2.80528      0.00000         0.043688     -0.025138     -0.093211
      3.17448      2.80528      2.29051        -0.044892      0.074211      0.152604
      1.61049      2.83078      4.57659         0.002831     -0.001535     -0.003223
      2.38086      4.20793      0.00000        -0.007913      0.000026     -0.003510
      0.79362      4.20793      2.29051         0.022692      0.000065     -0.005845
      3.97110      4.20796      4.57522         0.003521      0.000138     -0.003651
      9.47309      2.77351      6.79923        -0.000743     -0.003221     -0.004045
      2.25078      4.20797      6.93400        -0.001987      0.000007     -0.019408
      0.00000      5.61057      0.00000         0.043698      0.025234     -0.093188
      3.17448      5.61057      2.29051        -0.044887     -0.073937      0.152837
      1.61047      5.58506      4.57662         0.002937      0.001989     -0.003204
      2.38086      7.01321      0.00000        -0.014796      0.036647     -0.000270
      0.79362      7.01321      2.29051         0.059510     -0.040780      0.095245
      3.96928      7.00269      4.54462         0.000628      0.001447     -0.003684
      9.47303      5.64241      6.79929        -0.002050      0.002246     -0.004847
      2.32736      7.14903      6.86901        -0.002536      0.000846     -0.002082
      0.00000      8.41585      0.00000        -0.036850      0.001129     -0.112964
      3.17448      8.41585      2.29051        -0.031021     -0.052206     -0.020977
      1.60137      8.38716      4.55474        -0.004192      0.001074     -0.001605
      2.38086      9.81850      0.00000        -0.064358      0.000045      0.009126
      0.79362      9.81850      2.29051         0.056311      0.000123      0.123926
      3.96208      9.81852      4.51940        -0.000775     -0.000072     -0.001294
      9.48998      8.43781      6.83247        -0.001857      0.000925     -0.000511
      2.36430      9.81847      6.82812        -0.000956      0.000528     -0.001567
      4.76172      0.00000      0.00000         0.033791     -0.006557     -0.018786
      7.93620      0.00000      2.29051         0.048113      0.035578     -0.033311
      6.35354     11.21900      4.51881        -0.001412     -0.001003      0.000870
      7.14258      1.40264      0.00000         0.036659      0.011905     -0.010146
      5.55534      1.40264      2.29051        -0.036460      0.089840      0.000277
      8.73169      1.40854      4.51827        -0.000972     -0.002735     -0.001152
      4.78953     11.18441      6.79975        -0.001460     -0.001604     -0.004025
      7.16190      1.36028      6.83271        -0.001657      0.000804      0.000158
      4.76172      2.80528      0.00000         0.018744     -0.011225     -0.010026
      7.93620      2.80528      2.29051        -0.051763      0.035149      0.022333
      6.32948      2.80334      4.56875         0.002342     -0.000520      0.000045
      7.14258      4.20793      0.00000         0.053805      0.000049      0.024210
      5.55534      4.20793      2.29051        -0.027491      0.000111      0.115775
      8.72342      4.20794      4.51714         0.002356     -0.000092      0.000240
      4.87563      2.77737      6.87956        -0.004453      0.001117     -0.002186
      7.18024      4.20793      6.82856        -0.003039      0.000088     -0.000966
      4.76172      5.61057      0.00000         0.018777      0.011305     -0.010005
      7.93620      5.61057      2.29051        -0.051829     -0.035056      0.022272
      6.32948      5.61256      4.56876         0.002293      0.000728      0.000049
      7.14258      7.01321      0.00000         0.036689     -0.011824     -0.010162
      5.55534      7.01321      2.29051        -0.036629     -0.089701      0.000589
      8.73171      7.00728      4.51827        -0.001064      0.003403     -0.000953
      4.87568      5.63853      6.87959        -0.004533     -0.000856     -0.002153
      7.16192      7.05562      6.83277        -0.001308     -0.001342     -0.001334
      4.76172      8.41585      0.00000         0.033787      0.006616     -0.018743
      7.93620      8.41585      2.29051         0.048129     -0.035544     -0.033142
      6.35356      8.41801      4.51883        -0.001489      0.001009      0.000894
      7.14258      9.81850      0.00000         0.006691      0.000031     -0.035847
      5.55534      9.81850      2.29051        -0.052919     -0.000014     -0.094915
      8.75121      9.81852      4.51628         0.000898     -0.000104     -0.000279
      4.78956      8.45268      6.79978        -0.001463      0.001638     -0.004096
      7.15759      9.81853      6.82482        -0.000263      0.000074      0.003706
      3.19462      2.70226      8.01934        -0.004857      0.004403     -0.003781
      3.19464      5.71368      8.01932        -0.004690     -0.004676     -0.003470
 -----------------------------------------------------------------------------------
    total drift:                               -0.219985     -0.002810      0.016515


--------------------------------------------------------------------------------------------------------



  FREE ENERGIE OF THE ION-ELECTRON SYSTEM (eV)
  ---------------------------------------------------
  free  energy   TOTEN  =      -419.13091624 eV

  energy  without entropy=     -418.52517795  energy(sigma->0) =     -418.82804709
 
 d Force = 0.2702902E-04[ 0.254E-04, 0.287E-04]  d Energy = 0.2824197E-04-0.121E-05
 d Force =-0.4056181E+00[-0.405E+00,-0.406E+00]  d Ewald  =-0.4056182E+00 0.439E-08


--------------------------------------------------------------------------------------------------------


    POTLOK:  cpu time    0.0534: real time    0.0535


--------------------------------------------------------------------------------------------------------


 stress matrix after NEB project (eV)
    -51.76236     -0.00214     -0.67318
     -0.00214    -73.32700     -0.00312
     -0.67318     -0.00312      0.34114
  FORCES: max atom, RMS     0.019509    0.003714
  FORCE total and by dimension    0.030175    0.019408
  Stress total and by dimension   89.761981   73.327001
 Quasi-Newton relaxation of ions (Broydens 2nd method)
  g(Force)  = 0.176E-04   g(Stress)= 0.000E+00

 retain information from N=  6 steps
 eigenvalues of (default step * inverse Hessian matrix)
  average eigenvalue of G=   4.5349
 eigenvalue spectrum of G is  7.5300  7.5300  3.8510  3.8510  2.2238  2.2238


--------------------------------------------------------------------------------------------------------


  
 reached required accuracy - stopping structural energy minimisation
     LOOP+:  cpu time   36.5553: real time   37.0801
    4ORBIT:  cpu time    0.0000: real time    0.0000

 total amount of memory used by VASP MPI-rank0    74817. kBytes
=======================================================================

   base      :      30000. kBytes
   nonlr-proj:       5530. kBytes
   fftplans  :       3937. kBytes
   grid      :       6141. kBytes
   one-center:        139. kBytes
   wavefun   :      29070. kBytes
 
  
  
 General timing and accounting informations for this job:
 ========================================================
  
                  Total CPU time used (sec):     1465.340
                            User time (sec):     1268.721
                          System time (sec):      196.619
                         Elapsed time (sec):     1477.800
  
                   Maximum memory used (kb):      937072.
                   Average memory used (kb):           0.
  
                          Minor page faults:       322426
                          Major page faults:            0
                 Voluntary context switches:     98243392
