       N       E                     dE             d eps       ncg     rms          rms(c)
DAV:   1     0.427043313879E+04    0.42704E+04   -0.26602E+05   784   0.127E+03
DAV:   2    -0.509323124614E+02   -0.43214E+04   -0.39804E+04   920   0.276E+02
DAV:   3    -0.386289292510E+03   -0.33536E+03   -0.30151E+03   944   0.699E+01
DAV:   4    -0.404514797652E+03   -0.18226E+02   -0.16766E+02  1024   0.146E+01
DAV:   5    -0.405020932852E+03   -0.50614E+00   -0.50025E+00   992   0.254E+00    0.836E+01
RMM:   6    -0.408216685637E+03   -0.31958E+01   -0.82951E+01   787   0.142E+01    0.732E+01
RMM:   7    -0.440873789853E+03   -0.32657E+02   -0.14292E+02   786   0.123E+01    0.677E+01
RMM:   8    -0.534088098247E+03   -0.93214E+02   -0.11553E+02   787   0.121E+01    0.922E+01
RMM:   9    -0.490288419848E+03    0.43800E+02   -0.91676E+01   784   0.990E+00    0.735E+01
RMM:  10    -0.397725333426E+03    0.92563E+02   -0.41140E+01   785   0.751E+00    0.414E+01
RMM:  11    -0.389009465211E+03    0.87159E+01   -0.33967E+01   787   0.704E+00    0.353E+01
RMM:  12    -0.380422063935E+03    0.85874E+01   -0.73443E+00   786   0.341E+00    0.210E+01
RMM:  13    -0.378348831679E+03    0.20732E+01   -0.23565E+00   788   0.195E+00    0.149E+01
RMM:  14    -0.377746282090E+03    0.60255E+00   -0.11701E+00   789   0.136E+00    0.118E+01
RMM:  15    -0.377155796677E+03    0.59049E+00   -0.37661E-01   788   0.799E-01    0.676E+00
RMM:  16    -0.377147174811E+03    0.86219E-02   -0.28023E-01   789   0.674E-01    0.703E+00
RMM:  17    -0.376973090756E+03    0.17408E+00   -0.30528E-01   789   0.737E-01    0.491E+00
RMM:  18    -0.376920582005E+03    0.52509E-01   -0.23226E-01   789   0.625E-01    0.443E+00
RMM:  19    -0.376903472938E+03    0.17109E-01   -0.10874E-01   788   0.427E-01    0.421E+00
RMM:  20    -0.376835847819E+03    0.67625E-01   -0.52899E-02   789   0.298E-01    0.227E+00
RMM:  21    -0.376829076629E+03    0.67712E-02   -0.33836E-02   788   0.233E-01    0.183E+00
RMM:  22    -0.376816972470E+03    0.12104E-01   -0.16859E-02   789   0.165E-01    0.134E+00
RMM:  23    -0.376807435886E+03    0.95366E-02   -0.98778E-03   788   0.129E-01    0.881E-01
RMM:  24    -0.376806860195E+03    0.57569E-03   -0.38908E-03   788   0.783E-02    0.719E-01
RMM:  25    -0.376804472234E+03    0.23880E-02   -0.28990E-03   789   0.690E-02    0.384E-01
RMM:  26    -0.376803830962E+03    0.64127E-03   -0.11904E-03   788   0.437E-02    0.229E-01
RMM:  27    -0.376803957832E+03   -0.12687E-03   -0.36906E-04   789   0.236E-02    0.198E-01
RMM:  28    -0.376804019392E+03   -0.61559E-04   -0.13374E-04   792   0.144E-02    0.150E-01
RMM:  29    -0.376804364439E+03   -0.34505E-03   -0.15221E-04   788   0.153E-02    0.142E-01
RMM:  30    -0.376804651327E+03   -0.28689E-03   -0.12127E-04   789   0.137E-02    0.950E-02
RMM:  31    -0.376804784232E+03   -0.13291E-03   -0.59989E-05   788   0.947E-03    0.571E-02
RMM:  32    -0.376804882442E+03   -0.98210E-04   -0.24115E-05   785   0.587E-03    0.338E-02
RMM:  33    -0.376805058364E+03   -0.17592E-03   -0.25109E-05   783   0.569E-03    0.285E-02
RMM:  34    -0.376805223135E+03   -0.16477E-03   -0.18078E-05   775   0.469E-03    0.313E-02
RMM:  35    -0.376805443827E+03   -0.22069E-03   -0.24777E-05   773   0.522E-03    0.284E-02
RMM:  36    -0.376805571362E+03   -0.12754E-03   -0.13288E-05   689   0.368E-03    0.223E-02
RMM:  37    -0.376805657057E+03   -0.85695E-04   -0.67448E-06   594   0.257E-03    0.207E-02
RMM:  38    -0.376805776126E+03   -0.11907E-03   -0.88331E-06   625   0.277E-03    0.156E-02
RMM:  39    -0.376805834197E+03   -0.58071E-04   -0.42453E-06   545   0.188E-03    0.105E-02
RMM:  40    -0.376805904671E+03   -0.70474E-04   -0.50250E-06   561   0.194E-03    0.802E-03
RMM:  41    -0.376805931750E+03   -0.27079E-04   -0.18191E-06   478   0.120E-03    0.623E-03
RMM:  42    -0.376805955155E+03   -0.23404E-04   -0.11876E-06   455   0.955E-04    0.513E-03
RMM:  43    -0.376805972268E+03   -0.17113E-04   -0.77030E-07   422   0.757E-04    0.343E-03
RMM:  44    -0.376805986180E+03   -0.13912E-04   -0.40415E-07   307   0.591E-04    0.382E-03
RMM:  45    -0.376806005914E+03   -0.19734E-04   -0.73326E-07   412   0.701E-04    0.222E-03
RMM:  46    -0.376806013153E+03   -0.72394E-05   -0.29375E-07   235   0.477E-04    0.272E-03
RMM:  47    -0.376806017620E+03   -0.44670E-05   -0.19723E-07   218   0.436E-04    0.136E-03
RMM:  48    -0.376806019735E+03   -0.21144E-05   -0.10895E-07   191   0.391E-04    0.146E-03
RMM:  49    -0.376806021940E+03   -0.22053E-05   -0.49214E-08   142   0.352E-04    0.169E-03
RMM:  50    -0.376806024026E+03   -0.20857E-05   -0.55776E-08   151   0.364E-04    0.432E-03
RMM:  51    -0.376806024406E+03   -0.38069E-06   -0.36359E-08   123   0.360E-04
   1 F= -.41101837E+03 E0= -.41052169E+03  d E =-.993379E+00
       N       E                     dE             d eps       ncg     rms          rms(c)
DAV:   1    -0.376802899876E+03    0.31241E-02   -0.12293E+00   784   0.184E+00    0.260E-01
RMM:   2    -0.376804993288E+03   -0.20934E-02   -0.18904E-02   790   0.188E-01    0.344E-01
RMM:   3    -0.376805903506E+03   -0.91022E-03   -0.16105E-03   793   0.497E-02    0.580E-01
RMM:   4    -0.376805876008E+03    0.27498E-04   -0.95233E-04   790   0.338E-02    0.524E-01
RMM:   5    -0.376804467047E+03    0.14090E-02   -0.70812E-04   788   0.311E-02    0.275E-01
RMM:   6    -0.376804371350E+03    0.95697E-04   -0.41476E-04   790   0.261E-02    0.238E-01
RMM:   7    -0.376804184693E+03    0.18666E-03   -0.20075E-04   788   0.180E-02    0.125E-01
RMM:   8    -0.376804151861E+03    0.32832E-04   -0.11531E-04   790   0.137E-02    0.778E-02
RMM:   9    -0.376804137374E+03    0.14487E-04   -0.46865E-05   788   0.879E-03    0.554E-02
RMM:  10    -0.376804114399E+03    0.22975E-04   -0.16369E-05   783   0.526E-03    0.169E-02
RMM:  11    -0.376804113828E+03    0.57156E-06   -0.30570E-06   490   0.236E-03
   2 F= -.41101698E+03 E0= -.41052038E+03  d E =-.993203E+00
       N       E                     dE             d eps       ncg     rms          rms(c)
DAV:   1    -0.376803221123E+03    0.89328E-03   -0.49136E+00   784   0.367E+00    0.526E-01
RMM:   2    -0.376812085660E+03   -0.88645E-02   -0.76733E-02   790   0.377E-01    0.688E-01
RMM:   3    -0.376825440194E+03   -0.13355E-01   -0.79518E-03   793   0.104E-01    0.161E+00
RMM:   4    -0.376809371066E+03    0.16069E-01   -0.32584E-03   790   0.648E-02    0.633E-01
RMM:   5    -0.376809160529E+03    0.21054E-03   -0.25664E-03   788   0.624E-02    0.563E-01
RMM:   6    -0.376809175673E+03   -0.15144E-04   -0.16452E-03   789   0.512E-02    0.503E-01
RMM:   7    -0.376808172603E+03    0.10031E-02   -0.90526E-04   788   0.384E-02    0.243E-01
RMM:   8    -0.376808091592E+03    0.81011E-04   -0.48254E-04   790   0.281E-02    0.178E-01
RMM:   9    -0.376807986209E+03    0.10538E-03   -0.20192E-04   788   0.182E-02    0.115E-01
RMM:  10    -0.376807898547E+03    0.87663E-04   -0.75525E-05   789   0.113E-02    0.441E-02
RMM:  11    -0.376807891726E+03    0.68207E-05   -0.12872E-05   780   0.457E-03    0.320E-02
RMM:  12    -0.376807890362E+03    0.13636E-05   -0.80654E-06   746   0.350E-03    0.273E-02
RMM:  13    -0.376807887626E+03    0.27360E-05   -0.36961E-06   529   0.267E-03    0.194E-02
RMM:  14    -0.376807886455E+03    0.11716E-05   -0.11690E-06   418   0.156E-03    0.114E-02
RMM:  15    -0.376807886442E+03    0.12697E-07   -0.59507E-07   409   0.108E-03
   3 F= -.41101970E+03 E0= -.41052288E+03  d E =-.993634E+00
       N       E                     dE             d eps       ncg     rms          rms(c)
DAV:   1    -0.376803140207E+03    0.47462E-02   -0.22805E+00   800   0.252E+00    0.473E-01
RMM:   2    -0.376811845653E+03   -0.87054E-02   -0.51461E-02   789   0.286E-01    0.862E-01
RMM:   3    -0.376818248991E+03   -0.64033E-02   -0.72827E-03   792   0.101E-01    0.144E+00
RMM:   4    -0.376805698432E+03    0.12551E-01   -0.23309E-03   791   0.555E-02    0.509E-01
RMM:   5    -0.376805407167E+03    0.29126E-03   -0.16955E-03   788   0.512E-02    0.456E-01
RMM:   6    -0.376806208627E+03   -0.80146E-03   -0.13694E-03   789   0.459E-02    0.546E-01
RMM:   7    -0.376805043997E+03    0.11646E-02   -0.98975E-04   788   0.404E-02    0.242E-01
RMM:   8    -0.376804799692E+03    0.24431E-03   -0.43632E-04   789   0.267E-02    0.134E-01
RMM:   9    -0.376804773748E+03    0.25944E-04   -0.17046E-04   788   0.163E-02    0.112E-01
RMM:  10    -0.376804692727E+03    0.81021E-04   -0.62203E-05   788   0.103E-02    0.430E-02
RMM:  11    -0.376804684969E+03    0.77588E-05   -0.12311E-05   780   0.453E-03    0.285E-02
RMM:  12    -0.376804685752E+03   -0.78377E-06   -0.66382E-06   715   0.324E-03
   4 F= -.41101793E+03 E0= -.41052122E+03  d E =-.993433E+00
       N       E                     dE             d eps       ncg     rms          rms(c)
DAV:   1    -0.376804048675E+03    0.63629E-03   -0.46784E+00   784   0.358E+00    0.623E-01
RMM:   2    -0.376817627033E+03   -0.13578E-01   -0.95460E-02   789   0.398E-01    0.107E+00
RMM:   3    -0.376821574771E+03   -0.39477E-02   -0.10294E-02   791   0.125E-01    0.146E+00
RMM:   4    -0.376811917746E+03    0.96570E-02   -0.38861E-03   792   0.703E-02    0.932E-01
RMM:   5    -0.376809732517E+03    0.21852E-02   -0.31675E-03   788   0.692E-02    0.722E-01
RMM:   6    -0.376810373293E+03   -0.64078E-03   -0.27369E-03   788   0.643E-02    0.681E-01
RMM:   7    -0.376808155655E+03    0.22176E-02   -0.18162E-03   788   0.549E-02    0.284E-01
RMM:   8    -0.376807904023E+03    0.25163E-03   -0.71902E-04   789   0.342E-02    0.204E-01
RMM:   9    -0.376807781588E+03    0.12244E-03   -0.29574E-04   789   0.217E-02    0.135E-01
RMM:  10    -0.376807667144E+03    0.11444E-03   -0.10737E-04   788   0.135E-02    0.603E-02
RMM:  11    -0.376807650765E+03    0.16379E-04   -0.18256E-05   786   0.552E-03    0.366E-02
RMM:  12    -0.376807650662E+03    0.10295E-06   -0.11691E-05   783   0.423E-03    0.387E-02
RMM:  13    -0.376807649627E+03    0.10355E-05   -0.66051E-06   726   0.332E-03    0.326E-02
RMM:  14    -0.376807644598E+03    0.50290E-05   -0.34064E-06   520   0.251E-03    0.140E-02
RMM:  15    -0.376807644467E+03    0.13096E-06   -0.11561E-06   414   0.152E-03
   5 F= -.41101904E+03 E0= -.41052229E+03  d E =-.993504E+00
       N       E                     dE             d eps       ncg     rms          rms(c)
DAV:   1    -0.376790863243E+03    0.16781E-01   -0.23447E+00   784   0.256E+00    0.413E-01
RMM:   2    -0.376801292908E+03   -0.10430E-01   -0.40227E-02   789   0.263E-01    0.109E+00
RMM:   3    -0.376795632752E+03    0.56602E-02   -0.19624E-03   791   0.538E-02    0.672E-01
RMM:   4    -0.376795889473E+03   -0.25672E-03   -0.19965E-03   788   0.533E-02    0.689E-01
RMM:   5    -0.376796059544E+03   -0.17007E-03   -0.24996E-03   788   0.617E-02    0.676E-01
RMM:   6    -0.376794698207E+03    0.13613E-02   -0.12697E-03   790   0.445E-02    0.486E-01
RMM:   7    -0.376793774651E+03    0.92356E-03   -0.64143E-04   788   0.317E-02    0.262E-01
RMM:   8    -0.376793583315E+03    0.19134E-03   -0.40521E-04   788   0.254E-02    0.153E-01
RMM:   9    -0.376793547063E+03    0.36253E-04   -0.18935E-04   788   0.175E-02    0.108E-01
RMM:  10    -0.376793459464E+03    0.87599E-04   -0.61843E-05   788   0.982E-03    0.403E-02
RMM:  11    -0.376793451298E+03    0.81657E-05   -0.10554E-05   774   0.420E-03    0.190E-02
RMM:  12    -0.376793456161E+03   -0.48631E-05   -0.48882E-06   615   0.282E-03    0.247E-02
RMM:  13    -0.376793459579E+03   -0.34177E-05   -0.43704E-06   573   0.285E-03    0.173E-02
RMM:  14    -0.376793461016E+03   -0.14372E-05   -0.19750E-06   440   0.206E-03    0.110E-02
RMM:  15    -0.376793462041E+03   -0.10251E-05   -0.62128E-07   416   0.110E-03    0.910E-03
RMM:  16    -0.376793463543E+03   -0.15018E-05   -0.33573E-07   415   0.789E-04    0.519E-03
RMM:  17    -0.376793465385E+03   -0.18426E-05   -0.14778E-07   354   0.539E-04    0.287E-03
RMM:  18    -0.376793466527E+03   -0.11414E-05   -0.37779E-08   155   0.356E-04    0.160E-03
RMM:  19    -0.376793468608E+03   -0.20808E-05   -0.86763E-08   221   0.413E-04    0.146E-03
RMM:  20    -0.376793471994E+03   -0.33862E-05   -0.21323E-07   304   0.490E-04    0.127E-03
RMM:  21    -0.376793473227E+03   -0.12331E-05   -0.57155E-08   144   0.337E-04    0.909E-04
RMM:  22    -0.376793474481E+03   -0.12542E-05   -0.86417E-08   174   0.356E-04    0.891E-04
RMM:  23    -0.376793476277E+03   -0.17953E-05   -0.12848E-07   211   0.396E-04    0.850E-04
RMM:  24    -0.376793477369E+03   -0.10924E-05   -0.97480E-08   186   0.364E-04    0.746E-04
RMM:  25    -0.376793478685E+03   -0.13162E-05   -0.13829E-07   211   0.388E-04    0.440E-04
RMM:  26    -0.376793479420E+03   -0.73521E-06   -0.75304E-08   161   0.345E-04
   6 F= -.41100531E+03 E0= -.41050827E+03  d E =-.994086E+00
       N       E                     dE             d eps       ncg     rms          rms(c)
DAV:   1    -0.376809377514E+03   -0.15899E-01   -0.48062E+00   784   0.366E+00    0.848E-01
RMM:   2    -0.376838821680E+03   -0.29444E-01   -0.10565E-01   790   0.417E-01    0.218E+00
RMM:   3    -0.376821251737E+03    0.17570E-01   -0.46631E-03   800   0.825E-02    0.129E+00
RMM:   4    -0.376831791587E+03   -0.10540E-01   -0.45398E-03   792   0.789E-02    0.178E+00
RMM:   5    -0.376836318372E+03   -0.45268E-02   -0.10837E-02   788   0.126E-01    0.205E+00
RMM:   6    -0.376823453369E+03    0.12865E-01   -0.77704E-03   790   0.109E-01    0.121E+00
RMM:   7    -0.376816826584E+03    0.66268E-02   -0.43323E-03   788   0.818E-02    0.599E-01
RMM:   8    -0.376815648505E+03    0.11781E-02   -0.19494E-03   788   0.553E-02    0.322E-01
RMM:   9    -0.376815531232E+03    0.11727E-03   -0.78866E-04   788   0.356E-02    0.242E-01
RMM:  10    -0.376815166944E+03    0.36429E-03   -0.25474E-04   788   0.203E-02    0.809E-02
RMM:  11    -0.376815133466E+03    0.33478E-04   -0.47937E-05   791   0.872E-03    0.515E-02
RMM:  12    -0.376815138640E+03   -0.51740E-05   -0.21874E-05   785   0.577E-03    0.527E-02
RMM:  13    -0.376815145362E+03   -0.67221E-05   -0.17359E-05   783   0.531E-03    0.549E-02
RMM:  14    -0.376815139207E+03    0.61551E-05   -0.12414E-05   780   0.457E-03    0.327E-02
RMM:  15    -0.376815137564E+03    0.16425E-05   -0.56248E-06   679   0.309E-03    0.180E-02
RMM:  16    -0.376815139305E+03   -0.17404E-05   -0.20451E-06   439   0.197E-03    0.112E-02
RMM:  17    -0.376815142009E+03   -0.27041E-05   -0.81423E-07   427   0.129E-03    0.678E-03
RMM:  18    -0.376815143726E+03   -0.17177E-05   -0.25763E-07   411   0.734E-04    0.274E-03
RMM:  19    -0.376815146587E+03   -0.28607E-05   -0.16203E-07   361   0.527E-04    0.342E-03
RMM:  20    -0.376815150564E+03   -0.39764E-05   -0.13374E-07   262   0.464E-04    0.323E-03
RMM:  21    -0.376815152520E+03   -0.19562E-05   -0.63533E-08   173   0.384E-04    0.262E-03
RMM:  22    -0.376815154272E+03   -0.17517E-05   -0.54974E-08   163   0.378E-04    0.202E-03
RMM:  23    -0.376815157353E+03   -0.30810E-05   -0.14014E-07   258   0.427E-04    0.112E-03
RMM:  24    -0.376815159614E+03   -0.22615E-05   -0.93718E-08   195   0.372E-04    0.661E-04
RMM:  25    -0.376815162317E+03   -0.27030E-05   -0.14140E-07   235   0.401E-04    0.707E-04
RMM:  26    -0.376815164799E+03   -0.24816E-05   -0.16854E-07   225   0.392E-04    0.765E-04
RMM:  27    -0.376815165939E+03   -0.11403E-05   -0.58643E-08   132   0.342E-04    0.555E-04
RMM:  28    -0.376815167110E+03   -0.11708E-05   -0.10794E-07   192   0.361E-04    0.631E-04
RMM:  29    -0.376815167713E+03   -0.60310E-06   -0.24175E-08    91   0.305E-04
   7 F= -.41102803E+03 E0= -.41053167E+03  d E =-.992733E+00
       N       E                     dE             d eps       ncg     rms          rms(c)
DAV:   1    -0.376802392682E+03    0.12774E-01   -0.23608E+00   784   0.261E+00    0.571E-01
RMM:   2    -0.376812731826E+03   -0.10339E-01   -0.77716E-02   790   0.331E-01    0.980E-01
RMM:   3    -0.376818056542E+03   -0.53247E-02   -0.52505E-03   793   0.874E-02    0.127E+00
RMM:   4    -0.376817573179E+03    0.48336E-03   -0.54836E-03   792   0.821E-02    0.126E+00
RMM:   5    -0.376813171756E+03    0.44014E-02   -0.43735E-03   791   0.805E-02    0.110E+00
RMM:   6    -0.376809286532E+03    0.38852E-02   -0.25713E-03   789   0.637E-02    0.609E-01
RMM:   7    -0.376807685121E+03    0.16014E-02   -0.12492E-03   788   0.451E-02    0.275E-01
RMM:   8    -0.376807785721E+03   -0.10060E-03   -0.81320E-04   788   0.358E-02    0.269E-01
RMM:   9    -0.376807385629E+03    0.40009E-03   -0.34744E-04   787   0.236E-02    0.126E-01
RMM:  10    -0.376807298330E+03    0.87299E-04   -0.88058E-05   788   0.119E-02    0.563E-02
RMM:  11    -0.376807288876E+03    0.94537E-05   -0.17753E-05   787   0.523E-03    0.367E-02
RMM:  12    -0.376807288299E+03    0.57741E-06   -0.79525E-06   760   0.350E-03
   8 F= -.41101933E+03 E0= -.41052254E+03  d E =-.993581E+00
       N       E                     dE             d eps       ncg     rms          rms(c)
DAV:   1    -0.376798343761E+03    0.89451E-02   -0.47735E+00   784   0.347E+00    0.569E-01
RMM:   2    -0.376812684181E+03   -0.14340E-01   -0.97171E-02   789   0.393E-01    0.104E+00
RMM:   3    -0.376820382772E+03   -0.76986E-02   -0.79996E-03   792   0.106E-01    0.157E+00
RMM:   4    -0.376807253969E+03    0.13129E-01   -0.39891E-03   792   0.724E-02    0.734E-01
RMM:   5    -0.376807060098E+03    0.19387E-03   -0.36341E-03   788   0.737E-02    0.678E-01
RMM:   6    -0.376805697544E+03    0.13626E-02   -0.24797E-03   789   0.628E-02    0.503E-01
RMM:   7    -0.376804904382E+03    0.79316E-03   -0.10898E-03   789   0.420E-02    0.359E-01
RMM:   8    -0.376804633876E+03    0.27051E-03   -0.66342E-04   789   0.320E-02    0.250E-01
RMM:   9    -0.376804459235E+03    0.17464E-03   -0.36417E-04   788   0.242E-02    0.159E-01
RMM:  10    -0.376804260381E+03    0.19885E-03   -0.13392E-04   788   0.147E-02    0.527E-02
RMM:  11    -0.376804246397E+03    0.13983E-04   -0.22312E-05   787   0.598E-03    0.269E-02
RMM:  12    -0.376804251594E+03   -0.51967E-05   -0.89197E-06   772   0.369E-03    0.327E-02
RMM:  13    -0.376804249119E+03    0.24749E-05   -0.49255E-06   635   0.293E-03    0.207E-02
RMM:  14    -0.376804248571E+03    0.54768E-06   -0.16748E-06   435   0.183E-03
   9 F= -.41101689E+03 E0= -.41052028E+03  d E =-.993221E+00
       N       E                     dE             d eps       ncg     rms          rms(c)
DAV:   1    -0.376806298265E+03   -0.20491E-02   -0.23134E+00   784   0.244E+00    0.394E-01
RMM:   2    -0.376816950752E+03   -0.10652E-01   -0.53239E-02   789   0.280E-01    0.932E-01
RMM:   3    -0.376827948545E+03   -0.10998E-01   -0.66682E-03   791   0.919E-02    0.168E+00
RMM:   4    -0.376809525855E+03    0.18423E-01   -0.34295E-03   789   0.688E-02    0.400E-01
RMM:   5    -0.376809170625E+03    0.35523E-03   -0.14589E-03   788   0.474E-02    0.312E-01
RMM:   6    -0.376809167656E+03    0.29693E-05   -0.70663E-04   790   0.337E-02    0.312E-01
RMM:   7    -0.376808848887E+03    0.31877E-03   -0.36390E-04   788   0.247E-02    0.205E-01
RMM:   8    -0.376808720490E+03    0.12840E-03   -0.22890E-04   788   0.194E-02    0.119E-01
RMM:   9    -0.376808734638E+03   -0.14148E-04   -0.13616E-04   788   0.148E-02    0.107E-01
RMM:  10    -0.376808653006E+03    0.81632E-04   -0.58232E-05   788   0.975E-03    0.409E-02
RMM:  11    -0.376808639961E+03    0.13045E-04   -0.94723E-06   776   0.404E-03    0.180E-02
RMM:  12    -0.376808640740E+03   -0.77936E-06   -0.31305E-06   504   0.229E-03
  10 F= -.41102045E+03 E0= -.41052362E+03  d E =-.993652E+00
       N       E                     dE             d eps       ncg     rms          rms(c)
DAV:   1    -0.376797834804E+03    0.10805E-01   -0.46530E+00   800   0.346E+00    0.579E-01
RMM:   2    -0.376819057540E+03   -0.21223E-01   -0.10833E-01   790   0.399E-01    0.134E+00
RMM:   3    -0.376834631098E+03   -0.15574E-01   -0.12128E-02   791   0.124E-01    0.218E+00
RMM:   4    -0.376806344122E+03    0.28287E-01   -0.65446E-03   788   0.944E-02    0.708E-01
RMM:   5    -0.376805104313E+03    0.12398E-02   -0.35449E-03   788   0.740E-02    0.552E-01
RMM:   6    -0.376804931508E+03    0.17281E-03   -0.18124E-03   790   0.539E-02    0.540E-01
RMM:   7    -0.376803861459E+03    0.10700E-02   -0.91560E-04   788   0.388E-02    0.291E-01
RMM:   8    -0.376803602353E+03    0.25911E-03   -0.52005E-04   788   0.289E-02    0.176E-01
RMM:   9    -0.376803629235E+03   -0.26882E-04   -0.30208E-04   788   0.222E-02    0.156E-01
RMM:  10    -0.376803445762E+03    0.18347E-03   -0.13696E-04   788   0.151E-02    0.590E-02
RMM:  11    -0.376803425011E+03    0.20751E-04   -0.24421E-05   787   0.639E-03    0.263E-02
RMM:  12    -0.376803428727E+03   -0.37157E-05   -0.83036E-06   764   0.359E-03    0.314E-02
RMM:  13    -0.376803428166E+03    0.56087E-06   -0.47574E-06   612   0.286E-03
  11 F= -.41101626E+03 E0= -.41051963E+03  d E =-.993262E+00
       N       E                     dE             d eps       ncg     rms          rms(c)
DAV:   1    -0.376795520784E+03    0.79079E-02   -0.23256E+00   784   0.243E+00    0.489E-01
RMM:   2    -0.376803830661E+03   -0.83099E-02   -0.57425E-02   790   0.292E-01    0.788E-01
RMM:   3    -0.376802481229E+03    0.13494E-02   -0.65279E-03   792   0.972E-02    0.830E-01
RMM:   4    -0.376804232898E+03   -0.17517E-02   -0.25982E-03   791   0.574E-02    0.992E-01
RMM:   5    -0.376800078238E+03    0.41547E-02   -0.25409E-03   787   0.599E-02    0.611E-01
RMM:   6    -0.376799430020E+03    0.64822E-03   -0.14309E-03   790   0.474E-02    0.501E-01
RMM:   7    -0.376798511132E+03    0.91889E-03   -0.84645E-04   788   0.371E-02    0.256E-01
RMM:   8    -0.376798238627E+03    0.27251E-03   -0.40576E-04   788   0.256E-02    0.133E-01
RMM:   9    -0.376798223866E+03    0.14761E-04   -0.17931E-04   788   0.169E-02    0.116E-01
RMM:  10    -0.376798144007E+03    0.79859E-04   -0.68354E-05   789   0.107E-02    0.521E-02
RMM:  11    -0.376798127176E+03    0.16831E-04   -0.13064E-05   783   0.469E-03    0.238E-02
RMM:  12    -0.376798125993E+03    0.11828E-05   -0.46694E-06   605   0.273E-03    0.221E-02
RMM:  13    -0.376798126408E+03   -0.41403E-06   -0.28772E-06   482   0.233E-03
  12 F= -.41100980E+03 E0= -.41051273E+03  d E =-.994139E+00
       N       E                     dE             d eps       ncg     rms          rms(c)
DAV:   1    -0.376804627251E+03   -0.65013E-02   -0.48207E+00   792   0.353E+00    0.698E-01
RMM:   2    -0.376817386138E+03   -0.12759E-01   -0.10680E-01   789   0.397E-01    0.907E-01
RMM:   3    -0.376835399654E+03   -0.18014E-01   -0.10006E-02   791   0.119E-01    0.187E+00
RMM:   4    -0.376828999353E+03    0.64003E-02   -0.10055E-02   790   0.110E-01    0.162E+00
RMM:   5    -0.376817780757E+03    0.11219E-01   -0.57963E-03   789   0.937E-02    0.105E+00
RMM:   6    -0.376814153815E+03    0.36269E-02   -0.33518E-03   788   0.735E-02    0.596E-01
RMM:   7    -0.376812733892E+03    0.14199E-02   -0.16396E-03   789   0.518E-02    0.317E-01
RMM:   8    -0.376812454447E+03    0.27945E-03   -0.81541E-04   788   0.359E-02    0.226E-01
RMM:   9    -0.376812234061E+03    0.22039E-03   -0.32394E-04   789   0.230E-02    0.144E-01
RMM:  10    -0.376812114592E+03    0.11947E-03   -0.10425E-04   788   0.131E-02    0.610E-02
RMM:  11    -0.376812102171E+03    0.12422E-04   -0.29026E-05   790   0.684E-03    0.399E-02
RMM:  12    -0.376812098881E+03    0.32898E-05   -0.11315E-05   783   0.430E-03    0.347E-02
RMM:  13    -0.376812096084E+03    0.27972E-05   -0.54406E-06   658   0.301E-03    0.268E-02
RMM:  14    -0.376812093998E+03    0.20854E-05   -0.24320E-06   462   0.215E-03    0.150E-02
RMM:  15    -0.376812093340E+03    0.65834E-06   -0.11629E-06   417   0.155E-03
  13 F= -.41102513E+03 E0= -.41052877E+03  d E =-.992727E+00
