       N       E                     dE             d eps       ncg     rms          rms(c)
DAV:   1     0.431749223980E+04    0.43175E+04   -0.26905E+05  3920   0.127E+03
DAV:   2    -0.635516632904E+02   -0.43810E+04   -0.40423E+04  4608   0.281E+02
DAV:   3    -0.394888665330E+03   -0.33134E+03   -0.29918E+03  4688   0.707E+01
DAV:   4    -0.411204962333E+03   -0.16316E+02   -0.15313E+02  4968   0.142E+01
DAV:   5    -0.411643010020E+03   -0.43805E+00   -0.43484E+00  4832   0.246E+00    0.879E+01
RMM:   6    -0.396278334181E+03    0.15365E+02   -0.80513E+01  3937   0.140E+01    0.632E+01
RMM:   7    -0.586200790791E+03   -0.18992E+03   -0.30114E+02  4160   0.173E+01    0.999E+01
RMM:   8    -0.530299497495E+03    0.55901E+02   -0.14113E+02  3923   0.118E+01    0.928E+01
RMM:   9    -0.412019027628E+03    0.11828E+03   -0.70545E+01  3932   0.100E+01    0.433E+01
RMM:  10    -0.400891385921E+03    0.11128E+02   -0.53667E+01  3926   0.890E+00    0.420E+01
RMM:  11    -0.389384978178E+03    0.11506E+02   -0.99503E+00  3937   0.384E+00    0.250E+01
RMM:  12    -0.386778288948E+03    0.26067E+01   -0.48788E+00  3939   0.271E+00    0.175E+01
RMM:  13    -0.384651601346E+03    0.21267E+01   -0.20114E+00  3936   0.179E+00    0.102E+01
RMM:  14    -0.383985297232E+03    0.66630E+00   -0.59600E-01  3944   0.952E-01    0.639E+00
RMM:  15    -0.383880367351E+03    0.10493E+00   -0.26161E-01  3945   0.610E-01    0.536E+00
RMM:  16    -0.383801532277E+03    0.78835E-01   -0.14755E-01  3944   0.462E-01    0.413E+00
RMM:  17    -0.383857713203E+03   -0.56181E-01   -0.14964E-01  3942   0.485E-01    0.412E+00
RMM:  18    -0.383751485954E+03    0.10623E+00   -0.10533E-01  3944   0.413E-01    0.260E+00
RMM:  19    -0.383718123856E+03    0.33362E-01   -0.50970E-02  3941   0.285E-01    0.174E+00
RMM:  20    -0.383696543076E+03    0.21581E-01   -0.21843E-02  3942   0.186E-01    0.812E-01
RMM:  21    -0.383692271696E+03    0.42714E-02   -0.50982E-03  3946   0.886E-02    0.628E-01
RMM:  22    -0.383693184719E+03   -0.91302E-03   -0.15762E-03  4028   0.466E-02    0.684E-01
RMM:  23    -0.383690222918E+03    0.29618E-02   -0.81128E-04  3936   0.340E-02    0.460E-01
RMM:  24    -0.383690268970E+03   -0.46052E-04   -0.21871E-03  3939   0.566E-02    0.440E-01
RMM:  25    -0.383689571891E+03    0.69708E-03   -0.12014E-03  3943   0.425E-02    0.253E-01
RMM:  26    -0.383689072703E+03    0.49919E-03   -0.49413E-04  3938   0.277E-02    0.113E-01
RMM:  27    -0.383689215345E+03   -0.14264E-03   -0.16823E-04  3943   0.166E-02    0.121E-01
RMM:  28    -0.383689140774E+03    0.74571E-04   -0.68758E-05  3939   0.102E-02    0.490E-02
RMM:  29    -0.383689182464E+03   -0.41690E-04   -0.37429E-05  3932   0.688E-03    0.326E-02
RMM:  30    -0.383689296799E+03   -0.11434E-03   -0.26800E-05  3922   0.540E-03    0.333E-02
RMM:  31    -0.383689359561E+03   -0.62762E-04   -0.82148E-06  3363   0.332E-03    0.265E-02
RMM:  32    -0.383689437913E+03   -0.78352E-04   -0.70341E-06  3067   0.267E-03    0.158E-02
RMM:  33    -0.383689537913E+03   -0.99999E-04   -0.89387E-06  3214   0.280E-03    0.192E-02
RMM:  34    -0.383689617640E+03   -0.79728E-04   -0.51636E-06  2804   0.238E-03    0.976E-03
RMM:  35    -0.383689687801E+03   -0.70160E-04   -0.56340E-06  2894   0.244E-03    0.144E-02
RMM:  36    -0.383689729913E+03   -0.42112E-04   -0.26958E-06  2535   0.134E-03    0.104E-02
RMM:  37    -0.383689753882E+03   -0.23969E-04   -0.18141E-06  2399   0.112E-03    0.290E-03
RMM:  38    -0.383689771683E+03   -0.17802E-04   -0.70530E-07  2072   0.759E-04    0.538E-03
RMM:  39    -0.383689787356E+03   -0.15673E-04   -0.48262E-07  1835   0.641E-04    0.148E-03
RMM:  40    -0.383689796331E+03   -0.89747E-05   -0.26577E-07  1455   0.510E-04    0.361E-03
RMM:  41    -0.383689807579E+03   -0.11249E-04   -0.29158E-07  1613   0.506E-04    0.731E-03
RMM:  42    -0.383689813076E+03   -0.54965E-05   -0.13564E-07   907   0.366E-04    0.668E-03
RMM:  43    -0.383689817884E+03   -0.48083E-05   -0.13744E-07   936   0.377E-04    0.455E-03
RMM:  44    -0.383689824036E+03   -0.61524E-05   -0.61636E-07  2096   0.753E-04    0.180E-02
RMM:  45    -0.383689830851E+03   -0.68141E-05   -0.72349E-07  2077   0.801E-04    0.308E-02
RMM:  46    -0.383689832377E+03   -0.15267E-05   -0.16580E-07  1105   0.431E-04    0.306E-02
RMM:  47    -0.383689833712E+03   -0.13351E-05   -0.56453E-08   735   0.359E-04    0.318E-02
RMM:  48    -0.383689833759E+03   -0.46275E-07   -0.32587E-09   369   0.313E-04
   1 F= -.41891986E+03 E0= -.41862691E+03  d E =-.418920E+03
       N       E                     dE             d eps       ncg     rms          rms(c)
DAV:   1    -0.383688243370E+03    0.15903E-02   -0.23754E+00  3984   0.201E+00    0.250E-01
RMM:   2    -0.383698271211E+03   -0.10028E-01   -0.32384E-02  3937   0.316E-01    0.909E-01
RMM:   3    -0.383691767459E+03    0.65038E-02   -0.29275E-03  3975   0.729E-02    0.333E-01
RMM:   4    -0.383690999096E+03    0.76836E-03   -0.62468E-04  3939   0.339E-02    0.153E-01
RMM:   5    -0.383691272110E+03   -0.27301E-03   -0.85847E-04  3944   0.363E-02    0.303E-01
RMM:   6    -0.383690877372E+03    0.39474E-03   -0.52865E-04  3939   0.288E-02    0.169E-01
RMM:   7    -0.383690841110E+03    0.36262E-04   -0.42152E-04  3942   0.264E-02    0.129E-01
RMM:   8    -0.383690749228E+03    0.91882E-04   -0.13081E-04  3929   0.150E-02    0.787E-02
RMM:   9    -0.383690721661E+03    0.27567E-04   -0.33542E-05  3931   0.739E-03    0.576E-02
RMM:  10    -0.383690701049E+03    0.20612E-04   -0.14487E-05  3906   0.475E-03    0.319E-02
RMM:  11    -0.383690692647E+03    0.84018E-05   -0.93648E-06  3899   0.394E-03    0.158E-02
RMM:  12    -0.383690691626E+03    0.10214E-05   -0.36835E-06  2695   0.245E-03    0.102E-02
RMM:  13    -0.383690691834E+03   -0.20785E-06   -0.15303E-06  2108   0.182E-03
   2 F= -.41894102E+03 E0= -.41864803E+03  d E =-.211640E-01
       N       E                     dE             d eps       ncg     rms          rms(c)
DAV:   1    -0.383644436739E+03    0.46255E-01   -0.36252E+01  3968   0.792E+00    0.917E-01
RMM:   2    -0.383763534943E+03   -0.11910E+00   -0.49751E-01  3937   0.124E+00    0.295E+00
RMM:   3    -0.383700394854E+03    0.63140E-01   -0.41626E-02  3981   0.279E-01    0.124E+00
RMM:   4    -0.383689843782E+03    0.10551E-01   -0.10616E-02  3942   0.138E-01    0.759E-01
RMM:   5    -0.383688949651E+03    0.89413E-03   -0.91336E-03  3943   0.120E-01    0.949E-01
RMM:   6    -0.383685335256E+03    0.36144E-02   -0.67041E-03  3940   0.103E-01    0.584E-01
RMM:   7    -0.383685313918E+03    0.21338E-04   -0.60558E-03  3941   0.999E-02    0.517E-01
RMM:   8    -0.383683856790E+03    0.14571E-02   -0.19408E-03  3933   0.576E-02    0.320E-01
RMM:   9    -0.383683343990E+03    0.51280E-03   -0.49095E-04  3943   0.286E-02    0.212E-01
RMM:  10    -0.383683038734E+03    0.30526E-03   -0.21644E-04  3933   0.184E-02    0.116E-01
RMM:  11    -0.383682923937E+03    0.11480E-03   -0.13173E-04  3937   0.146E-02    0.599E-02
RMM:  12    -0.383682902057E+03    0.21880E-04   -0.52518E-05  3925   0.890E-03    0.390E-02
RMM:  13    -0.383682900429E+03    0.16284E-05   -0.17835E-05  3929   0.534E-03    0.348E-02
RMM:  14    -0.383682895163E+03    0.52657E-05   -0.14640E-05  3910   0.486E-03    0.196E-02
RMM:  15    -0.383682893968E+03    0.11951E-05   -0.42458E-06  2864   0.276E-03    0.472E-03
RMM:  16    -0.383682895269E+03   -0.13007E-05   -0.11125E-06  2113   0.161E-03    0.521E-03
RMM:  17    -0.383682896768E+03   -0.14991E-05   -0.37414E-07  2096   0.965E-04    0.425E-03
RMM:  18    -0.383682897313E+03   -0.54471E-06   -0.12697E-07  2039   0.556E-04
   3 F= -.41901276E+03 E0= -.41871954E+03  d E =-.717388E-01
       N       E                     dE             d eps       ncg     rms          rms(c)
DAV:   1    -0.383607601182E+03    0.75296E-01   -0.45145E+01  3952   0.898E+00    0.104E+00
RMM:   2    -0.383777228758E+03   -0.16963E+00   -0.66081E-01  3947   0.140E+00    0.356E+00
RMM:   3    -0.383675667054E+03    0.10156E+00   -0.53178E-02  3999   0.316E-01    0.113E+00
RMM:   4    -0.383670161686E+03    0.55054E-02   -0.15095E-02  3945   0.163E-01    0.110E+00
RMM:   5    -0.383664344894E+03    0.58168E-02   -0.85640E-03  3949   0.118E-01    0.908E-01
RMM:   6    -0.383661838136E+03    0.25068E-02   -0.74775E-03  3941   0.110E-01    0.673E-01
RMM:   7    -0.383661701322E+03    0.13681E-03   -0.70033E-03  3943   0.107E-01    0.602E-01
RMM:   8    -0.383659657746E+03    0.20436E-02   -0.22353E-03  3936   0.614E-02    0.357E-01
RMM:   9    -0.383659023305E+03    0.63444E-03   -0.56638E-04  3946   0.307E-02    0.228E-01
RMM:  10    -0.383658641928E+03    0.38138E-03   -0.25400E-04  3933   0.202E-02    0.118E-01
RMM:  11    -0.383658528113E+03    0.11382E-03   -0.13835E-04  3936   0.144E-02    0.598E-02
RMM:  12    -0.383658508349E+03    0.19763E-04   -0.56765E-05  3927   0.944E-03    0.446E-02
RMM:  13    -0.383658505233E+03    0.31159E-05   -0.21923E-05  3925   0.592E-03    0.372E-02
RMM:  14    -0.383658497269E+03    0.79644E-05   -0.14859E-05  3909   0.491E-03    0.176E-02
RMM:  15    -0.383658495169E+03    0.20995E-05   -0.41765E-06  2871   0.279E-03    0.514E-03
RMM:  16    -0.383658495826E+03   -0.65677E-06   -0.93540E-07  2099   0.147E-03
   4 F= -.41907676E+03 E0= -.41878314E+03  d E =-.639977E-01
       N       E                     dE             d eps       ncg     rms          rms(c)
DAV:   1    -0.383395927091E+03    0.26257E+00   -0.14827E+02  3920   0.164E+01    0.198E+00
RMM:   2    -0.384059875137E+03   -0.66395E+00   -0.23013E+00  3948   0.259E+00    0.727E+00
RMM:   3    -0.383621180698E+03    0.43869E+00   -0.18783E-01  4008   0.590E-01    0.183E+00
RMM:   4    -0.383619007483E+03    0.21732E-02   -0.57479E-02  3946   0.314E-01    0.235E+00
RMM:   5    -0.383590722493E+03    0.28285E-01   -0.25902E-02  3948   0.209E-01    0.168E+00
RMM:   6    -0.383583503962E+03    0.72185E-02   -0.23398E-02  3944   0.195E-01    0.134E+00
RMM:   7    -0.383581598383E+03    0.19056E-02   -0.22592E-02  3943   0.192E-01    0.115E+00
RMM:   8    -0.383573783679E+03    0.78147E-02   -0.74113E-03  3939   0.111E-01    0.633E-01
RMM:   9    -0.383571837000E+03    0.19467E-02   -0.19242E-03  3944   0.563E-02    0.404E-01
RMM:  10    -0.383570677579E+03    0.11594E-02   -0.78919E-04  3934   0.362E-02    0.220E-01
RMM:  11    -0.383570317511E+03    0.36007E-03   -0.39045E-04  3941   0.235E-02    0.114E-01
RMM:  12    -0.383570221954E+03    0.95557E-04   -0.17695E-04  3941   0.169E-02    0.740E-02
RMM:  13    -0.383570209302E+03    0.12652E-04   -0.81671E-05  3931   0.115E-02    0.596E-02
RMM:  14    -0.383570194172E+03    0.15131E-04   -0.47412E-05  3922   0.877E-03    0.346E-02
RMM:  15    -0.383570185425E+03    0.87464E-05   -0.16558E-05  3920   0.537E-03    0.167E-02
RMM:  16    -0.383570185107E+03    0.31841E-06   -0.25157E-06  2355   0.224E-03
   5 F= -.41914949E+03 E0= -.41885467E+03  d E =-.727353E-01
       N       E                     dE             d eps       ncg     rms          rms(c)
DAV:   1    -0.383481972718E+03    0.88213E-01   -0.26870E+01  3920   0.710E+00    0.878E-01
RMM:   2    -0.383602572296E+03   -0.12060E+00   -0.43752E-01  3950   0.111E+00    0.307E+00
RMM:   3    -0.383523275401E+03    0.79297E-01   -0.33490E-02  3998   0.250E-01    0.692E-01
RMM:   4    -0.383525234849E+03   -0.19594E-02   -0.11016E-02  3946   0.137E-01    0.109E+00
RMM:   5    -0.383519162796E+03    0.60721E-02   -0.43112E-03  3950   0.856E-02    0.726E-01
RMM:   6    -0.383518232500E+03    0.93030E-03   -0.44628E-03  3943   0.853E-02    0.619E-01
RMM:   7    -0.383517508745E+03    0.72375E-03   -0.40993E-03  3944   0.820E-02    0.488E-01
RMM:   8    -0.383516103466E+03    0.14053E-02   -0.13184E-03  3940   0.466E-02    0.272E-01
RMM:   9    -0.383515747907E+03    0.35556E-03   -0.33458E-04  3945   0.235E-02    0.173E-01
RMM:  10    -0.383515533708E+03    0.21420E-03   -0.14484E-04  3938   0.154E-02    0.929E-02
RMM:  11    -0.383515466679E+03    0.67029E-04   -0.81039E-05  3939   0.106E-02    0.450E-02
RMM:  12    -0.383515455371E+03    0.11308E-04   -0.39307E-05  3930   0.800E-03    0.369E-02
RMM:  13    -0.383515454067E+03    0.13043E-05   -0.13446E-05  3924   0.465E-03    0.309E-02
RMM:  14    -0.383515450385E+03    0.36815E-05   -0.71325E-06  3669   0.346E-03    0.183E-02
RMM:  15    -0.383515448272E+03    0.21129E-05   -0.25066E-06  2282   0.224E-03    0.865E-03
RMM:  16    -0.383515448010E+03    0.26190E-06   -0.72280E-07  2079   0.127E-03
   6 F= -.41916340E+03 E0= -.41886797E+03  d E =-.139077E-01
       N       E                     dE             d eps       ncg     rms          rms(c)
DAV:   1    -0.383472988863E+03    0.42459E-01   -0.75884E+00  3920   0.385E+00    0.492E-01
RMM:   2    -0.383505324026E+03   -0.32335E-01   -0.13228E-01  3955   0.597E-01    0.155E+00
RMM:   3    -0.383485418601E+03    0.19905E-01   -0.95792E-03  4002   0.134E-01    0.378E-01
RMM:   4    -0.383486340538E+03   -0.92194E-03   -0.34113E-03  3944   0.754E-02    0.629E-01
RMM:   5    -0.383484399208E+03    0.19413E-02   -0.11518E-03  3949   0.446E-02    0.413E-01
RMM:   6    -0.383484083137E+03    0.31607E-03   -0.12943E-03  3945   0.458E-02    0.351E-01
RMM:   7    -0.383483773103E+03    0.31003E-03   -0.11675E-03  3944   0.438E-02    0.256E-01
RMM:   8    -0.383483405597E+03    0.36751E-03   -0.38358E-04  3944   0.250E-02    0.147E-01
RMM:   9    -0.383483301550E+03    0.10405E-03   -0.10083E-04  3940   0.129E-02    0.910E-02
RMM:  10    -0.383483246158E+03    0.55392E-04   -0.39687E-05  3929   0.810E-03    0.511E-02
RMM:  11    -0.383483225370E+03    0.20788E-04   -0.24301E-05  3924   0.580E-03    0.226E-02
RMM:  12    -0.383483222875E+03    0.24949E-05   -0.13189E-05  3908   0.467E-03    0.203E-02
RMM:  13    -0.383483222673E+03    0.20157E-06   -0.35472E-06  2682   0.250E-03
   7 F= -.41916712E+03 E0= -.41887144E+03  d E =-.372259E-02
       N       E                     dE             d eps       ncg     rms          rms(c)
DAV:   1    -0.383460015369E+03    0.23208E-01   -0.26588E+00  3920   0.234E+00    0.308E-01
RMM:   2    -0.383470718323E+03   -0.10703E-01   -0.50625E-02  3953   0.359E-01    0.861E-01
RMM:   3    -0.383464918883E+03    0.57994E-02   -0.35412E-03  3999   0.805E-02    0.272E-01
RMM:   4    -0.383465118526E+03   -0.19964E-03   -0.13381E-03  3944   0.467E-02    0.383E-01
RMM:   5    -0.383464405098E+03    0.71343E-03   -0.41584E-04  3946   0.270E-02    0.252E-01
RMM:   6    -0.383464317450E+03    0.87648E-04   -0.45974E-04  3945   0.271E-02    0.228E-01
RMM:   7    -0.383464150775E+03    0.16668E-03   -0.39197E-04  3940   0.254E-02    0.147E-01
RMM:   8    -0.383464040527E+03    0.11025E-03   -0.14149E-04  3939   0.152E-02    0.888E-02
RMM:   9    -0.383464001424E+03    0.39103E-04   -0.38128E-05  3925   0.799E-03    0.512E-02
RMM:  10    -0.383463984165E+03    0.17259E-04   -0.13357E-05  3915   0.469E-03    0.286E-02
RMM:  11    -0.383463978111E+03    0.60535E-05   -0.82643E-06  3772   0.345E-03    0.153E-02
RMM:  12    -0.383463977237E+03    0.87437E-06   -0.41711E-06  2815   0.271E-03
   8 F= -.41916836E+03 E0= -.41887256E+03  d E =-.123268E-02
       N       E                     dE             d eps       ncg     rms          rms(c)
DAV:   1    -0.383453311839E+03    0.10666E-01   -0.77372E-01  3936   0.131E+00    0.178E-01
RMM:   2    -0.383456669718E+03   -0.33579E-02   -0.16704E-02  3955   0.197E-01    0.474E-01
RMM:   3    -0.383454998004E+03    0.16717E-02   -0.11658E-03  3997   0.451E-02    0.186E-01
RMM:   4    -0.383455012016E+03   -0.14011E-04   -0.48674E-04  3942   0.279E-02    0.228E-01
RMM:   5    -0.383454764454E+03    0.24756E-03   -0.13982E-04  3944   0.156E-02    0.147E-01
RMM:   6    -0.383454705195E+03    0.59258E-04   -0.12148E-04  3939   0.141E-02    0.116E-01
RMM:   7    -0.383454669183E+03    0.36013E-04   -0.11791E-04  3938   0.139E-02    0.818E-02
RMM:   8    -0.383454642436E+03    0.26747E-04   -0.46251E-05  3934   0.868E-03    0.526E-02
RMM:   9    -0.383454627652E+03    0.14783E-04   -0.14794E-05  3917   0.498E-03    0.264E-02
RMM:  10    -0.383454623241E+03    0.44115E-05   -0.36833E-06  2684   0.259E-03    0.143E-02
RMM:  11    -0.383454622029E+03    0.12116E-05   -0.19612E-06  2171   0.189E-03    0.992E-03
RMM:  12    -0.383454621632E+03    0.39748E-06   -0.13789E-06  2111   0.169E-03
   9 F= -.41916890E+03 E0= -.41887306E+03  d E =-.545498E-03
       N       E                     dE             d eps       ncg     rms          rms(c)
DAV:   1    -0.383451728329E+03    0.28937E-02   -0.18612E-01  3936   0.672E-01    0.926E-02
RMM:   2    -0.383452278754E+03   -0.55043E-03   -0.45619E-03  3955   0.973E-02    0.137E-01
RMM:   3    -0.383452655465E+03   -0.37671E-03   -0.37136E-04  3990   0.242E-02    0.241E-01
RMM:   4    -0.383452199238E+03    0.45623E-03   -0.20133E-04  3939   0.168E-02    0.114E-01
RMM:   5    -0.383452121275E+03    0.77963E-04   -0.51202E-05  3943   0.932E-03    0.670E-02
RMM:   6    -0.383452105440E+03    0.15836E-04   -0.24536E-05  3927   0.641E-03    0.474E-02
RMM:   7    -0.383452099895E+03    0.55445E-05   -0.22732E-05  3923   0.619E-03    0.341E-02
RMM:   8    -0.383452098576E+03    0.13196E-05   -0.10980E-05  3908   0.425E-03    0.291E-02
RMM:   9    -0.383452093895E+03    0.46811E-05   -0.37897E-06  2696   0.264E-03    0.112E-02
RMM:  10    -0.383452093106E+03    0.78864E-06   -0.99369E-07  2045   0.146E-03
  10 F= -.41916938E+03 E0= -.41887353E+03  d E =-.482838E-03
       N       E                     dE             d eps       ncg     rms          rms(c)
DAV:   1    -0.383451476326E+03    0.61757E-03   -0.42687E-01  3936   0.101E+00    0.128E-01
RMM:   2    -0.383452651746E+03   -0.11754E-02   -0.99653E-03  3954   0.147E-01    0.183E-01
RMM:   3    -0.383454116142E+03   -0.14644E-02   -0.99153E-04  3985   0.388E-02    0.453E-01
RMM:   4    -0.383452366439E+03    0.17497E-02   -0.33874E-04  3939   0.225E-02    0.109E-01
RMM:   5    -0.383452317326E+03    0.49113E-04   -0.12287E-04  3943   0.142E-02    0.920E-02
RMM:   6    -0.383452282548E+03    0.34778E-04   -0.48528E-05  3938   0.891E-03    0.557E-02
RMM:   7    -0.383452275703E+03    0.68446E-05   -0.44513E-05  3928   0.863E-03    0.452E-02
RMM:   8    -0.383452274771E+03    0.93192E-06   -0.29115E-05  3925   0.695E-03    0.404E-02
RMM:   9    -0.383452265630E+03    0.91416E-05   -0.10982E-05  3906   0.434E-03    0.161E-02
RMM:  10    -0.383452263823E+03    0.18067E-05   -0.20313E-06  2190   0.200E-03    0.753E-03
RMM:  11    -0.383452263572E+03    0.25134E-06   -0.81744E-07  2059   0.128E-03
  11 F= -.41917028E+03 E0= -.41887443E+03  d E =-.892157E-03
       N       E                     dE             d eps       ncg     rms          rms(c)
DAV:   1    -0.383455715391E+03   -0.34516E-02   -0.33632E-01  3936   0.834E-01    0.946E-02
RMM:   2    -0.383456981987E+03   -0.12666E-02   -0.63314E-03  3945   0.127E-01    0.284E-01
RMM:   3    -0.383456504451E+03    0.47754E-03   -0.53399E-04  4004   0.300E-02    0.174E-01
RMM:   4    -0.383456283864E+03    0.22059E-03   -0.16525E-04  3942   0.166E-02    0.951E-02
RMM:   5    -0.383456231858E+03    0.52006E-04   -0.61879E-05  3940   0.103E-02    0.625E-02
RMM:   6    -0.383456225023E+03    0.68354E-05   -0.40368E-05  3937   0.815E-03    0.528E-02
RMM:   7    -0.383456225015E+03    0.74215E-08   -0.42474E-05  3929   0.837E-03    0.524E-02
RMM:   8    -0.383456212590E+03    0.12425E-04   -0.23346E-05  3920   0.624E-03    0.344E-02
RMM:   9    -0.383456205893E+03    0.66966E-05   -0.71154E-06  3790   0.350E-03    0.172E-02
RMM:  10    -0.383456204124E+03    0.17698E-05   -0.14845E-06  2117   0.173E-03    0.102E-02
RMM:  11    -0.383456203472E+03    0.65134E-06   -0.86886E-07  2062   0.128E-03
  12 F= -.41917100E+03 E0= -.41887516E+03  d E =-.722744E-03
       N       E                     dE             d eps       ncg     rms          rms(c)
DAV:   1    -0.383460879117E+03   -0.46750E-02   -0.30947E-01  3936   0.766E-01    0.852E-02
RMM:   2    -0.383462218060E+03   -0.13389E-02   -0.50396E-03  3935   0.119E-01    0.319E-01
RMM:   3    -0.383461400242E+03    0.81782E-03   -0.43411E-04  4002   0.276E-02    0.109E-01
RMM:   4    -0.383461341566E+03    0.58676E-04   -0.12556E-04  3946   0.145E-02    0.949E-02
RMM:   5    -0.383461288654E+03    0.52911E-04   -0.51658E-05  3936   0.934E-03    0.598E-02
RMM:   6    -0.383461285576E+03    0.30780E-05   -0.41780E-05  3937   0.826E-03    0.556E-02
RMM:   7    -0.383461286974E+03   -0.13979E-05   -0.44329E-05  3933   0.852E-03    0.563E-02
RMM:   8    -0.383461269691E+03    0.17283E-04   -0.19974E-05  3910   0.577E-03    0.328E-02
RMM:   9    -0.383461263857E+03    0.58343E-05   -0.50522E-06  3185   0.297E-03    0.187E-02
RMM:  10    -0.383461261729E+03    0.21277E-05   -0.15839E-06  2141   0.181E-03    0.108E-02
RMM:  11    -0.383461261078E+03    0.65163E-06   -0.88199E-07  2079   0.128E-03
  13 F= -.41917152E+03 E0= -.41887570E+03  d E =-.516195E-03
       N       E                     dE             d eps       ncg     rms          rms(c)
DAV:   1    -0.383465211230E+03   -0.39495E-02   -0.35095E-01  3920   0.836E-01    0.934E-02
RMM:   2    -0.383466630179E+03   -0.14189E-02   -0.62232E-03  3943   0.128E-01    0.313E-01
RMM:   3    -0.383465909179E+03    0.72100E-03   -0.52193E-04  4000   0.300E-02    0.145E-01
RMM:   4    -0.383465771561E+03    0.13762E-03   -0.15160E-04  3942   0.160E-02    0.947E-02
RMM:   5    -0.383465718824E+03    0.52737E-04   -0.61883E-05  3943   0.102E-02    0.635E-02
RMM:   6    -0.383465713393E+03    0.54301E-05   -0.43481E-05  3939   0.844E-03    0.562E-02
RMM:   7    -0.383465714096E+03   -0.70290E-06   -0.47022E-05  3929   0.882E-03    0.568E-02
RMM:   8    -0.383465698145E+03    0.15951E-04   -0.23025E-05  3920   0.619E-03    0.347E-02
RMM:   9    -0.383465691227E+03    0.69182E-05   -0.66221E-06  3690   0.337E-03    0.178E-02
RMM:  10    -0.383465689360E+03    0.18672E-05   -0.15703E-06  2140   0.178E-03    0.108E-02
RMM:  11    -0.383465688655E+03    0.70413E-06   -0.94132E-07  2073   0.132E-03
  14 F= -.41917191E+03 E0= -.41887612E+03  d E =-.396872E-03
       N       E                     dE             d eps       ncg     rms          rms(c)
DAV:   1    -0.383467447911E+03   -0.17586E-02   -0.80480E-02  3936   0.401E-01    0.445E-02
RMM:   2    -0.383467761560E+03   -0.31365E-03   -0.14447E-03  3941   0.617E-02    0.145E-01
RMM:   3    -0.383467615881E+03    0.14568E-03   -0.12293E-04  4001   0.145E-02    0.752E-02
RMM:   4    -0.383467579788E+03    0.36093E-04   -0.34929E-05  3946   0.766E-03    0.510E-02
RMM:   5    -0.383467564123E+03    0.15665E-04   -0.12983E-05  3925   0.474E-03    0.269E-02
RMM:   6    -0.383467563346E+03    0.77680E-06   -0.95162E-06  3888   0.397E-03
  15 F= -.41917206E+03 E0= -.41887628E+03  d E =-.149048E-03
       N       E                     dE             d eps       ncg     rms          rms(c)
DAV:   1    -0.383468743519E+03   -0.11794E-02   -0.43393E-02  3952   0.295E-01    0.427E-02
RMM:   2    -0.383469027038E+03   -0.28352E-03   -0.80546E-04  3944   0.456E-02    0.160E-01
RMM:   3    -0.383468932055E+03    0.94984E-04   -0.12626E-04  3967   0.139E-02    0.122E-01
RMM:   4    -0.383468809311E+03    0.12274E-03   -0.35723E-05  3934   0.731E-03    0.357E-02
RMM:   5    -0.383468804453E+03    0.48572E-05   -0.10501E-05  3911   0.428E-03    0.291E-02
RMM:   6    -0.383468800285E+03    0.41682E-05   -0.49439E-06  3180   0.297E-03    0.185E-02
RMM:   7    -0.383468803293E+03   -0.30075E-05   -0.85690E-06  3887   0.382E-03    0.262E-02
RMM:   8    -0.383468798666E+03    0.46270E-05   -0.35990E-06  2681   0.255E-03    0.922E-03
RMM:   9    -0.383468798130E+03    0.53526E-06   -0.83956E-07  2031   0.137E-03
  16 F= -.41917214E+03 E0= -.41887636E+03  d E =-.744337E-04
       N       E                     dE             d eps       ncg     rms          rms(c)
DAV:   1    -0.383469514662E+03   -0.71600E-03   -0.24396E-02  3952   0.221E-01    0.240E-02
RMM:   2    -0.383469562109E+03   -0.47447E-04   -0.42961E-04  3940   0.337E-02    0.346E-02
RMM:   3    -0.383469593377E+03   -0.31268E-04   -0.35454E-05  4005   0.784E-03    0.685E-02
RMM:   4    -0.383469558373E+03    0.35004E-04   -0.12294E-05  3878   0.418E-03    0.340E-02
RMM:   5    -0.383469550526E+03    0.78474E-05   -0.41672E-06  2835   0.272E-03    0.140E-02
RMM:   6    -0.383469549903E+03    0.62272E-06   -0.25771E-06  2279   0.228E-03
  17 F= -.41917220E+03 E0= -.41887642E+03  d E =-.603473E-04
       N       E                     dE             d eps       ncg     rms          rms(c)
DAV:   1    -0.383470031258E+03   -0.48073E-03   -0.18089E-02  3952   0.188E-01    0.244E-02
RMM:   2    -0.383470101042E+03   -0.69784E-04   -0.31253E-04  3944   0.289E-02    0.714E-02
RMM:   3    -0.383470094014E+03    0.70276E-05   -0.37819E-05  3985   0.780E-03    0.658E-02
RMM:   4    -0.383470058966E+03    0.35048E-04   -0.12210E-05  3885   0.422E-03    0.239E-02
RMM:   5    -0.383470055179E+03    0.37868E-05   -0.33405E-06  2545   0.256E-03    0.126E-02
RMM:   6    -0.383470054746E+03    0.43344E-06   -0.25269E-06  2237   0.233E-03
  18 F= -.41917224E+03 E0= -.41887645E+03  d E =-.424638E-04
       N       E                     dE             d eps       ncg     rms          rms(c)
DAV:   1    -0.383470352817E+03   -0.29764E-03   -0.12523E-02  3936   0.156E-01    0.192E-02
RMM:   2    -0.383470396362E+03   -0.43545E-04   -0.21861E-04  3946   0.240E-02    0.597E-02
RMM:   3    -0.383470386773E+03    0.95885E-05   -0.23073E-05  3972   0.634E-03    0.430E-02
RMM:   4    -0.383470374724E+03    0.12049E-04   -0.64778E-06  3445   0.305E-03    0.247E-02
RMM:   5    -0.383470370219E+03    0.45048E-05   -0.24095E-06  2260   0.220E-03    0.110E-02
RMM:   6    -0.383470369667E+03    0.55171E-06   -0.14526E-06  2089   0.183E-03
  19 F= -.41917227E+03 E0= -.41887649E+03  d E =-.293765E-04
