 vasp.5.4.4.18Apr17-6-g9f103f2a35 (build Nov 06 2023 00:46:14) complex          
  
 executed on             LinuxIFC date 2025.07.24  16:32:16
 running on   64 total cores
 distrk:  each k-point on   64 cores,    1 groups
 distr:  one band on NCORES_PER_BAND=   8 cores,    8 groups


--------------------------------------------------------------------------------------------------------


 INCAR:
 POTCAR:    PAW_PBE Pt 04Feb2005                  
 POTCAR:    PAW_PBE O 08Apr2002                   
 POTCAR:    PAW_PBE Pt 04Feb2005                  
   VRHFIN =Pt: s1d9                                                             
   LEXCH  = PE                                                                  
   EATOM  =   729.1176 eV,   53.5886 Ry                                         
                                                                                
   TITEL  = PAW_PBE Pt 04Feb2005                                                
   LULTRA =        F    use ultrasoft PP ?                                      
   IUNSCR =        1    unscreen: 0-lin 1-nonlin 2-no                           
   RPACOR =    2.330    partial core radius                                     
   POMASS =  195.080; ZVAL   =   10.000    mass and valenz                      
   RCORE  =    2.600    outmost cutoff radius                                   
   RWIGS  =    2.750; RWIGS  =    1.455    wigner-seitz radius (au A)           
   ENMAX  =  230.283; ENMIN  =  172.712 eV                                      
   ICORE  =        3    local potential                                         
   LCOR   =        T    correct aug charges                                     
   LPAW   =        T    paw PP                                                  
   EAUG   =  358.966                                                            
   DEXC   =    0.000                                                            
   RMAX   =    2.658    core radius for proj-oper                               
   RAUG   =    1.300    factor for augmentation sphere                          
   RDEP   =    2.761    radius for radial grids                                 
   RDEPT  =    2.203    core radius for aug-charge                              
                                                                                
   Atomic configuration                                                         
   16 entries                                                                   
     n  l   j            E        occ.                                          
     1  0  0.50    -78401.1885   2.0000                                         
     2  0  0.50    -13770.7750   2.0000                                         
     2  1  1.50    -11931.0468   6.0000                                         
     3  0  0.50     -3234.7234   2.0000                                         
     3  1  1.50     -2699.2216   6.0000                                         
     3  2  2.50     -2119.5714  10.0000                                         
     4  0  0.50      -695.1528   2.0000                                         
     4  1  1.50      -519.6034   6.0000                                         
     4  2  2.50      -306.6786  10.0000                                         
     4  3  3.50       -70.1041  14.0000                                         
     5  0  0.50      -101.7747   2.0000                                         
     5  1  1.50       -55.9873   6.0000                                         
     5  2  2.50        -6.1423   9.0000                                         
     6  0  0.50        -5.6573   1.0000                                         
     6  1  1.50        -6.8029   0.0000                                         
     5  3  2.50        -1.3606   0.0000                                         
   Description                                                                  
     l       E           TYP  RCUT    TYP  RCUT                                 
     2     -6.1423404     23  2.500                                             
     2     -7.5029230     23  2.500                                             
     0     -5.6573207     23  2.500                                             
     0      0.7416693     23  2.500                                             
     1     -2.7211652     23  2.600                                             
     1     20.4087390     23  2.600                                             
     3     -1.3605826     23  2.500                                             
  local pseudopotential read in
  partial core-charges read in
  partial kinetic energy density read in
  atomic valenz-charges read in
  non local Contribution for L=           2  read in
    real space projection operators read in
  non local Contribution for L=           2  read in
    real space projection operators read in
  non local Contribution for L=           0  read in
    real space projection operators read in
  non local Contribution for L=           0  read in
    real space projection operators read in
  non local Contribution for L=           1  read in
    real space projection operators read in
  non local Contribution for L=           1  read in
    real space projection operators read in
    PAW grid and wavefunctions read in
 
   number of l-projection  operators is LMAX  =           6
   number of lm-projection operators is LMMAX =          18
 
 POTCAR:    PAW_PBE O 08Apr2002                   
   VRHFIN =O: s2p4                                                              
   LEXCH  = PE                                                                  
   EATOM  =   432.3788 eV,   31.7789 Ry                                         
                                                                                
   TITEL  = PAW_PBE O 08Apr2002                                                 
   LULTRA =        F    use ultrasoft PP ?                                      
   IUNSCR =        1    unscreen: 0-lin 1-nonlin 2-no                           
   RPACOR =    1.200    partial core radius                                     
   POMASS =   16.000; ZVAL   =    6.000    mass and valenz                      
   RCORE  =    1.520    outmost cutoff radius                                   
   RWIGS  =    1.550; RWIGS  =    0.820    wigner-seitz radius (au A)           
   ENMAX  =  400.000; ENMIN  =  300.000 eV                                      
   ICORE  =        2    local potential                                         
   LCOR   =        T    correct aug charges                                     
   LPAW   =        T    paw PP                                                  
   EAUG   =  605.392                                                            
   DEXC   =    0.000                                                            
   RMAX   =    1.553    core radius for proj-oper                               
   RAUG   =    1.300    factor for augmentation sphere                          
   RDEP   =    1.550    radius for radial grids                                 
   RDEPT  =    1.329    core radius for aug-charge                              
                                                                                
   Atomic configuration                                                         
    4 entries                                                                   
     n  l   j            E        occ.                                          
     1  0  0.50      -514.6923   2.0000                                         
     2  0  0.50       -23.9615   2.0000                                         
     2  1  0.50        -9.0305   4.0000                                         
     3  2  1.50        -9.5241   0.0000                                         
   Description                                                                  
     l       E           TYP  RCUT    TYP  RCUT                                 
     0    -23.9615318     23  1.200                                             
     0     -9.5240782     23  1.200                                             
     1     -9.0304911     23  1.520                                             
     1      8.1634956     23  1.520                                             
     2     -9.5240782      7  1.500                                             
  local pseudopotential read in
  partial core-charges read in
  partial kinetic energy density read in
  kinetic energy density of atom read in
  atomic valenz-charges read in
  non local Contribution for L=           0  read in
    real space projection operators read in
  non local Contribution for L=           0  read in
    real space projection operators read in
  non local Contribution for L=           1  read in
    real space projection operators read in
  non local Contribution for L=           1  read in
    real space projection operators read in
    PAW grid and wavefunctions read in
 
   number of l-projection  operators is LMAX  =           4
   number of lm-projection operators is LMMAX =           8
 
 Optimization of the real space projectors (new method)

 maximal supplied QI-value         = 14.36
 optimisation between [QCUT,QGAM] = [ 10.77, 21.69] = [ 32.49,131.70] Ry 
 Optimized for a Real-space Cutoff    1.46 Angstroem

   l    n(q)    QCUT    max X(q) W(low)/X(q) W(high)/X(q)  e(spline) 
   2      9    10.771    66.195    0.13E-03    0.31E-03    0.27E-06
   2      9    10.771    64.643    0.13E-03    0.32E-03    0.28E-06
   0     10    10.771    95.520    0.41E-04    0.13E-03    0.15E-06
   0     10    10.771    63.403    0.40E-04    0.12E-03    0.14E-06
   1      9    10.771    19.961    0.42E-03    0.19E-03    0.28E-06
   1      9    10.771    13.289    0.35E-03    0.16E-03    0.23E-06
 Optimization of the real space projectors (new method)

 maximal supplied QI-value         = 24.76
 optimisation between [QCUT,QGAM] = [ 10.64, 21.54] = [ 31.73,129.89] Ry 
 Optimized for a Real-space Cutoff    1.23 Angstroem

   l    n(q)    QCUT    max X(q) W(low)/X(q) W(high)/X(q)  e(spline) 
   0      8    10.645    20.381    0.38E-03    0.60E-03    0.15E-06
   0      8    10.645    15.268    0.40E-03    0.65E-03    0.17E-06
   1      7    10.645     5.964    0.30E-03    0.63E-03    0.18E-06
   1      7    10.645     5.382    0.24E-03    0.53E-03    0.16E-06
  PAW_PBE Pt 04Feb2005                  :
 energy of atom  1       EATOM= -729.1176
 kinetic energy error for atom=    0.0051 (will be added to EATOM!!)
  PAW_PBE O 08Apr2002                   :
 energy of atom  2       EATOM= -432.3788
 kinetic energy error for atom=    0.0389 (will be added to EATOM!!)
 
 
 POSCAR: Pt  O                                   
  positions in cartesian coordinates
  No initial velocities read in
 exchange correlation table for  LEXCH =        8
   RHO(1)=    0.500       N(1)  =     2000
   RHO(2)=  100.500       N(2)  =     4000

 VTST: version 3.2, (02/03/18)

 CHAIN: initializing optimizer
 
 OPT: Using VASP QUASI-newton optimizer
 CHAIN: Read ICHAIN            0
 
 POSCAR: Pt  O                                   
  positions in cartesian coordinates
  No initial velocities read in
 


--------------------------------------------------------------------------------------------------------


 ion  position               nearest neighbor table
   1  0.000  0.000  0.000-   9 2.75  25 2.75   5 2.79  29 2.79  28 2.79   4 2.79  36 2.79  60 2.79
                            34 2.81
   2  0.333  0.000  0.092-  10 2.75  26 2.75  30 2.79  28 2.79   4 2.79  29 2.79   5 2.79  37 2.79
                            61 2.79  33 2.81   6 2.81   3 2.83
   3  0.168  0.002  0.185-   8 2.74  11 2.75   6 2.77  30 2.79  38 2.79  62 2.79  27 2.80  32 2.81
                             5 2.82   2 2.83  29 2.84   7 2.85
   4  0.250  0.125  0.000-  12 2.75  28 2.75   2 2.79  10 2.79   9 2.79   1 2.79  33 2.79  41 2.79
                             5 2.81
   5  0.083  0.125  0.092-  13 2.75  29 2.75   1 2.79   9 2.79   2 2.79  10 2.79  34 2.79  42 2.79
                            38 2.80   4 2.81   3 2.82  11 2.84
   6  0.416  0.126  0.184-  14 2.74  30 2.76  43 2.77   3 2.77  11 2.79  10 2.80  35 2.80   2 2.81
                            39 2.82  37 2.82  47 2.89   8 2.90
   7  0.996  0.999  0.277-   8 2.72  40 2.73  31 2.73  64 2.74  15 2.74  32 2.80  62 2.83  38 2.85
                             3 2.85
   8  0.244  0.115  0.278-  65 2.03  32 2.64   7 2.72   3 2.74  39 2.83  15 2.84  16 2.86  11 2.87
                             6 2.90  47 3.01
   9  0.000  0.250  0.000-   1 2.75  17 2.75  13 2.79   5 2.79   4 2.79  12 2.79  36 2.79  44 2.79
                            42 2.81
  10  0.333  0.250  0.092-   2 2.75  18 2.75  12 2.79   4 2.79  13 2.79   5 2.79  37 2.79  45 2.79
                             6 2.80  41 2.81  14 2.83  11 2.84
  11  0.168  0.252  0.185-  19 2.70   3 2.75  14 2.77   6 2.79  46 2.80  38 2.81  13 2.82  15 2.83
                            10 2.84   5 2.84  16 2.85   8 2.87
  12  0.250  0.375  0.000-   4 2.75  20 2.75  18 2.79  10 2.79   9 2.79  17 2.79  41 2.79  49 2.79
                            13 2.81
  13  0.083  0.375  0.092-   5 2.75  21 2.75  17 2.79   9 2.79  18 2.79  10 2.79  42 2.79  50 2.79
                            12 2.81  46 2.81  11 2.82  19 2.82
  14  0.416  0.375  0.185-   6 2.74  22 2.74  19 2.77  11 2.77  43 2.78  51 2.78  18 2.83  10 2.83
                            45 2.85  47 2.89  55 2.89  16 2.98
  15  0.994  0.248  0.276-  48 2.71  40 2.72  16 2.74   7 2.74  23 2.78  38 2.79  46 2.82  11 2.83
                             8 2.84
  16  0.237  0.375  0.282-  66 2.08  65 2.08  23 2.74  15 2.74  19 2.85  11 2.85  24 2.86   8 2.86
                            14 2.98  47 3.04  55 3.04
  17  0.000  0.500  0.000-   9 2.75  25 2.75  21 2.79  13 2.79  12 2.79  20 2.79  44 2.79  52 2.79
                            50 2.81
  18  0.333  0.500  0.092-  10 2.75  26 2.75  20 2.79  12 2.79  21 2.79  13 2.79  45 2.79  53 2.79
                            22 2.80  49 2.81  14 2.83  19 2.84
  19  0.168  0.498  0.185-  11 2.70  27 2.74  14 2.77  22 2.79  46 2.81  54 2.81  13 2.82  23 2.83
                            18 2.84  21 2.85  16 2.85  24 2.87
  20  0.250  0.625  0.000-  12 2.75  28 2.75  26 2.79  18 2.79  17 2.79  25 2.79  49 2.79  57 2.79
                            21 2.81
  21  0.083  0.625  0.092-  13 2.75  29 2.75  25 2.79  17 2.79  26 2.79  18 2.79  50 2.79  58 2.79
                            54 2.80  20 2.81  27 2.81  19 2.85
  22  0.416  0.624  0.184-  14 2.74  30 2.76  51 2.77  27 2.77  19 2.79  18 2.80  59 2.80  26 2.81
                            63 2.82  53 2.82  55 2.89  24 2.90
  23  0.994  0.501  0.276-  48 2.71  56 2.73  16 2.74  31 2.75  15 2.78  54 2.79  46 2.82  19 2.83
                            24 2.84
  24  0.244  0.635  0.278-  66 2.03  32 2.64  31 2.72  27 2.74  63 2.84  23 2.84  16 2.86  19 2.87
                            22 2.90  55 3.01
  25  0.000  0.750  0.000-   1 2.75  17 2.75  21 2.79  29 2.79  28 2.79  20 2.79  52 2.79  60 2.79
                            58 2.81
  26  0.333  0.750  0.092-   2 2.75  18 2.75  30 2.79  28 2.79  20 2.79  29 2.79  21 2.79  53 2.79
                            61 2.79  57 2.81  22 2.81  27 2.83
  27  0.168  0.748  0.185-  24 2.74  19 2.74  22 2.77  30 2.79  54 2.79  62 2.79   3 2.80  32 2.81
                            21 2.81  26 2.83  29 2.84  31 2.85
  28  0.250  0.875  0.000-   4 2.75  20 2.75   2 2.79  26 2.79  25 2.79   1 2.79  33 2.79  57 2.79
                            29 2.81
  29  0.083  0.875  0.092-   5 2.75  21 2.75  62 2.79  25 2.79   1 2.79  26 2.79  34 2.79  58 2.79
                             2 2.79  28 2.81   3 2.84  27 2.84
  30  0.416  0.875  0.183-  22 2.76   6 2.76  26 2.79   2 2.79   3 2.79  27 2.79  63 2.80  39 2.80
                            35 2.80  59 2.81  61 2.81  32 2.86
  31  0.996  0.751  0.277-  24 2.72  56 2.73   7 2.73  64 2.74  23 2.75  32 2.80  62 2.83  54 2.84
                            27 2.85
  32  0.248  0.875  0.277-   8 2.64  24 2.64  31 2.80   7 2.80   3 2.81  27 2.81  63 2.82  39 2.82
                            30 2.86
  33  0.500  0.000  0.000-  41 2.75  57 2.75  37 2.79  61 2.79  28 2.79  36 2.79  60 2.79   4 2.79
                             2 2.81
  34  0.833  0.000  0.092-  42 2.75  58 2.75  38 2.79  36 2.79  60 2.79   5 2.79  37 2.79  29 2.79
                            61 2.79  62 2.80  35 2.80   1 2.81
  35  0.667  0.000  0.183-  43 2.75  59 2.75  37 2.79  61 2.79  38 2.79  34 2.80  39 2.80   6 2.80
                            30 2.80  62 2.81  64 2.84  40 2.84
  36  0.750  0.125  0.000-  44 2.75  60 2.75  34 2.79  42 2.79  41 2.79   9 2.79  33 2.79   1 2.79
                            37 2.81
  37  0.583  0.125  0.092-  45 2.75  61 2.75  35 2.79  33 2.79  41 2.79   2 2.79  42 2.79  34 2.79
                            10 2.79  36 2.81   6 2.82  43 2.82
  38  0.917  0.125  0.183-  46 2.75  62 2.75  42 2.79  35 2.79  34 2.79   3 2.79  15 2.79   5 2.80
                            43 2.81  11 2.81   7 2.85  40 2.85
  39  0.503  0.998  0.275-  63 2.69  47 2.76  64 2.77  40 2.79  30 2.80  35 2.80   6 2.82  32 2.82
                             8 2.83
  40  0.753  0.122  0.278-  47 2.70  64 2.72  15 2.72   7 2.73  48 2.78  39 2.79  43 2.84  35 2.84
                            38 2.85
  41  0.500  0.250  0.000-  33 2.75  49 2.75  45 2.79  37 2.79  12 2.79  44 2.79   4 2.79  36 2.79
                            10 2.81
  42  0.833  0.250  0.092-  34 2.75  50 2.75  46 2.78  38 2.79  36 2.79  44 2.79  13 2.79  45 2.79
                            37 2.79   5 2.79   9 2.81  43 2.86
  43  0.664  0.250  0.185-  35 2.75  51 2.75  47 2.77   6 2.77  14 2.78  46 2.80  38 2.81  37 2.82
                            45 2.82  48 2.83  40 2.84  42 2.86
  44  0.750  0.375  0.000-  36 2.75  52 2.75  50 2.79  42 2.79  17 2.79  49 2.79   9 2.79  41 2.79
                            45 2.81
  45  0.583  0.375  0.092-  37 2.75  53 2.75  49 2.79  41 2.79  42 2.79  10 2.79  50 2.79  18 2.79
                            44 2.81  43 2.82  51 2.82  14 2.85
  46  0.915  0.375  0.183-  54 2.75  38 2.75  50 2.78  42 2.78  51 2.80  43 2.80  11 2.80  19 2.81
                            13 2.81  23 2.82  15 2.82  48 2.84
  47  0.514  0.248  0.279-  65 2.04  40 2.70  48 2.73  39 2.76  43 2.77  55 2.79  14 2.89   6 2.89
                             8 3.01  16 3.04
  48  0.755  0.375  0.278-  23 2.71  15 2.71  55 2.72  47 2.73  40 2.78  56 2.78  51 2.83  43 2.83
                            46 2.84
  49  0.500  0.500  0.000-  41 2.75  57 2.75  53 2.79  45 2.79  20 2.79  52 2.79  12 2.79  44 2.79
                            18 2.81
  50  0.833  0.500  0.092-  42 2.75  58 2.75  46 2.78  54 2.79  44 2.79  52 2.79  21 2.79  53 2.79
                            45 2.79  13 2.79  17 2.81  51 2.86
  51  0.664  0.500  0.185-  59 2.75  43 2.75  55 2.77  22 2.77  14 2.78  46 2.80  54 2.81  53 2.82
                            45 2.82  48 2.83  56 2.84  50 2.86
  52  0.750  0.625  0.000-  44 2.75  60 2.75  58 2.79  50 2.79  25 2.79  57 2.79  17 2.79  49 2.79
                            53 2.81
  53  0.583  0.625  0.092-  45 2.75  61 2.75  59 2.79  49 2.79  57 2.79  18 2.79  58 2.79  26 2.79
                            50 2.79  52 2.81  22 2.82  51 2.82
  54  0.917  0.625  0.183-  46 2.75  62 2.75  50 2.79  59 2.79  27 2.79  58 2.79  23 2.79  21 2.80
                            51 2.81  19 2.81  31 2.84  56 2.85
  55  0.514  0.502  0.279-  66 2.04  56 2.70  48 2.72  63 2.76  51 2.77  47 2.79  14 2.89  22 2.89
                            24 3.01  16 3.04
  56  0.753  0.628  0.277-  55 2.70  64 2.72  31 2.73  23 2.73  48 2.78  63 2.79  51 2.84  59 2.84
                            54 2.85
  57  0.500  0.750  0.000-  33 2.75  49 2.75  53 2.79  61 2.79  52 2.79  20 2.79  60 2.79  28 2.79
                            26 2.81
  58  0.833  0.750  0.092-  34 2.75  50 2.75  54 2.79  52 2.79  60 2.79  53 2.79  29 2.79  21 2.79
                            61 2.79  62 2.80  59 2.80  25 2.81
  59  0.667  0.750  0.183-  35 2.75  51 2.75  54 2.79  61 2.79  53 2.79  58 2.80  22 2.80  63 2.80
                            30 2.81  62 2.81  64 2.84  56 2.84
  60  0.750  0.875  0.000-  36 2.75  52 2.75  34 2.79  58 2.79  25 2.79  33 2.79  57 2.79   1 2.79
                            61 2.81
  61  0.583  0.875  0.092-  37 2.75  53 2.75  35 2.79  59 2.79  57 2.79  33 2.79  34 2.79  26 2.79
                            58 2.79   2 2.79  60 2.81  30 2.81
  62  0.919  0.875  0.183-  54 2.75  38 2.75  29 2.79   3 2.79  27 2.79  58 2.80  34 2.80  59 2.81
                            35 2.81   7 2.83  31 2.83  64 2.85
  63  0.503  0.753  0.275-  39 2.69  55 2.76  64 2.77  56 2.79  30 2.80  59 2.80  22 2.82  32 2.82
                            24 2.84
  64  0.752  0.875  0.277-  56 2.72  40 2.72   7 2.74  31 2.74  63 2.77  39 2.77  59 2.84  35 2.84
                            62 2.85
  65  0.340  0.240  0.324-   8 2.03  47 2.04  16 2.08
  66  0.340  0.509  0.324-  24 2.03  55 2.04  16 2.08
 

IMPORTANT INFORMATION: All symmetrisations will be switched off!
NOSYMM: (Re-)initialisation of all symmetry stuff for point group C_1.

 
 
 KPOINTS: K-Spacing Value to Generate K-Mesh: 0.03

Automatic generation of k-mesh.
Space group operators:
 irot       det(A)        alpha          n_x          n_y          n_z        tau_x        tau_y        tau_z
    1     1.000000     0.000001     1.000000     0.000000     0.000000     0.000000     0.000000     0.000000
 
 Subroutine IBZKPT returns following result:
 ===========================================
 
 Found      5 irreducible k-points:
 
 Following reciprocal coordinates:
            Coordinates               Weight
  0.000000  0.000000  0.000000      1.000000
  0.333333  0.000000  0.000000      2.000000
  0.000000  0.333333  0.000000      2.000000
  0.333333  0.333333  0.000000      2.000000
 -0.333333  0.333333  0.000000      2.000000
 
 Following cartesian coordinates:
            Coordinates               Weight
  0.000000  0.000000  0.000000      1.000000
  0.034301  0.000000  0.000000      2.000000
  0.000000  0.030312  0.000000      2.000000
  0.034301  0.030312  0.000000      2.000000
 -0.034301  0.030312  0.000000      2.000000
 


--------------------------------------------------------------------------------------------------------




 Dimension of arrays:
   k-points           NKPTS =      5   k-points in BZ     NKDIM =      5   number of bands    NBANDS=    392
   number of dos      NEDOS =    301   number of ions     NIONS =     66
   non local maximal  LDIM  =      6   non local SUM 2l+1 LMDIM =     18
   total plane-waves  NPLWV = 420000
   max r-space proj   IRMAX =   2120   max aug-charges    IRDMAX=   9720
   dimension x,y,z NGX =    50 NGY =   60 NGZ =  140
   dimension x,y,z NGXF=   100 NGYF=  120 NGZF=  280
   support grid    NGXF=   100 NGYF=  120 NGZF=  280
   ions per type =              64   2
   NGX,Y,Z   is equivalent  to a cutoff of   8.55,  9.07,  9.31 a.u.
   NGXF,Y,Z  is equivalent  to a cutoff of  17.11, 18.14, 18.62 a.u.

 SYSTEM =  Pt111 O2 adsorption system              
 POSCAR =  Pt  O                                   

 Startparameter for this run:
   NWRITE =      2    write-flag & timer
   PREC   = normal    normal or accurate (medium, high low for compatibility)
   ISTART =      0    job   : 0-new  1-cont  2-samecut
   ICHARG =      1    charge: 1-file 2-atom 10-const
   ISPIN  =      1    spin polarized calculation?
   LNONCOLLINEAR =      F non collinear calculations
   LSORBIT =      F    spin-orbit coupling
   INIWAV =      1    electr: 0-lowe 1-rand  2-diag
   LASPH  =      F    aspherical Exc in radial PAW
   METAGGA=      F    non-selfconsistent MetaGGA calc.

 Electronic Relaxation 1
   ENCUT  =  450.0 eV  33.07 Ry    5.75 a.u.  16.81 19.02 43.24*2*pi/ulx,y,z
   ENINI  =  450.0     initial cutoff
   ENAUG  =  605.4 eV  augmentation charge cutoff
   NELM   =     60;   NELMIN=  2; NELMDL= -5     # of ELM steps 
   EDIFF  = 0.1E-05   stopping-criterion for ELM
   LREAL  =      T    real-space projection
   NLSPLINE    = F    spline interpolate recip. space projectors
   LCOMPAT=      F    compatible to vasp.4.4
   GGA_COMPAT  = T    GGA compatible to vasp.4.4-vasp.4.6
   LMAXPAW     = -100 max onsite density
   LMAXMIX     =    2 max onsite mixed and CHGCAR
   VOSKOWN=      0    Vosko Wilk Nusair interpolation
   ROPT   =   -0.00050  -0.00050
 Ionic relaxation
   EDIFFG = -.2E-01   stopping-criterion for IOM
   NSW    =    200    number of steps for IOM
   NBLOCK =      1;   KBLOCK =    200    inner block; outer block 
   IBRION =      1    ionic relax: 0-MD 1-quasi-New 2-CG
   NFREE  =      0    steps in history (QN), initial steepest desc. (CG)
   ISIF   =      2    stress and relaxation
   IWAVPR =     11    prediction:  0-non 1-charg 2-wave 3-comb
   ISYM   =      0    0-nonsym 1-usesym 2-fastsym
   LCORR  =      T    Harris-Foulkes like correction to forces

   POTIM  = 0.2000    time-step for ionic-motion
   TEIN   =    0.0    initial temperature
   TEBEG  =    0.0;   TEEND  =   0.0 temperature during run
   SMASS  =  -3.00    Nose mass-parameter (am)
   estimated Nose-frequenzy (Omega)   =  0.10E-29 period in steps =****** mass=  -0.216E-26a.u.
   SCALEE = 1.0000    scale energy and forces
   NPACO  =    256;   APACO  = 16.0  distance and # of slots for P.C.
   PSTRESS=    0.0 pullay stress

  Mass of Ions in am
   POMASS = 195.08 16.00
  Ionic Valenz
   ZVAL   =  10.00  6.00
  Atomic Wigner-Seitz radii
   RWIGS  =  -1.00 -1.00
  virtual crystal weights 
   VCA    =   1.00  1.00
   NELECT =     652.0000    total number of electrons
   NUPDOWN=      -1.0000    fix difference up-down

 DOS related values:
   EMIN   =  10.00;   EMAX   =-10.00  energy-range for DOS
   EFERMI =   0.00
   ISMEAR =     0;   SIGMA  =   0.10  broadening in eV -4-tet -1-fermi 0-gaus

 Electronic relaxation 2 (details)
   IALGO  =     68    algorithm
   LDIAG  =      T    sub-space diagonalisation (order eigenvalues)
   LSUBROT=      F    optimize rotation matrix (better conditioning)
   TURBO    =      0    0=normal 1=particle mesh
   IRESTART =      0    0=no restart 2=restart with 2 vectors
   NREBOOT  =      0    no. of reboots
   NMIN     =      0    reboot dimension
   EREF     =   0.00    reference energy to select bands
   IMIX   =      4    mixing-type and parameters
     AMIX     =   0.40;   BMIX     =  1.00
     AMIX_MAG =   1.60;   BMIX_MAG =  1.00
     AMIN     =   0.10
     WC   =   100.;   INIMIX=   1;  MIXPRE=   1;  MAXMIX= -45

 Intra band minimization:
   WEIMIN = 0.0010     energy-eigenvalue tresh-hold
   EBREAK =  0.64E-09  absolut break condition
   DEPER  =   0.30     relativ break condition  

   TIME   =   0.40     timestep for ELM

  volume/ion in A,a.u.               =      40.48       273.16
  Fermi-wavevector in a.u.,A,eV,Ry     =   1.023059  1.933300 14.240521  1.046649
  Thomas-Fermi vector in A             =   2.156771
 
 Write flags
   LWAVE        =      F    write WAVECAR
   LDOWNSAMPLE  =      F    k-point downsampling of WAVECAR
   LCHARG       =      F    write CHGCAR
   LVTOT        =      F    write LOCPOT, total local potential
   LVHAR        =      F    write LOCPOT, Hartree potential only
   LELF         =      F    write electronic localiz. function (ELF)
   LORBIT       =      0    0 simple, 1 ext, 2 COOP (PROOUT), +10 PAW based schemes


 Dipole corrections
   LMONO  =      F    monopole corrections only (constant potential shift)
   LDIPOL =      T    correct potential (dipole corrections)
   IDIPOL =      3    1-x, 2-y, 3-z, 4-all directions 
   EPSILON=  1.0000000 bulk dielectric constant

 Exchange correlation treatment:
   GGA     =    PE    GGA type
   LEXCH   =     8    internal setting for exchange type
   VOSKOWN=      0    Vosko Wilk Nusair interpolation
   LHFCALC =     F    Hartree Fock is set to
   LHFONE  =     F    Hartree Fock one center treatment
   AEXX    =    0.0000 exact exchange contribution

 Linear response parameters
   LEPSILON=     F    determine dielectric tensor
   LRPA    =     F    only Hartree local field effects (RPA)
   LNABLA  =     F    use nabla operator in PAW spheres
   LVEL    =     F    velocity operator in full k-point grid
   LINTERFAST=   F  fast interpolation
   KINTER  =     0    interpolate to denser k-point grid
   CSHIFT  =0.1000    complex shift for real part using Kramers Kronig
   OMEGAMAX=  -1.0    maximum frequency
   DEG_THRESHOLD= 0.2000000E-02 threshold for treating states as degnerate
   RTIME   =   -0.100 relaxation time in fs
  (WPLASMAI=    0.000 imaginary part of plasma frequency in eV, 0.658/RTIME)
   DFIELD  = 0.0000000 0.0000000 0.0000000 field for delta impulse in time
 
 Orbital magnetization related:
   ORBITALMAG=     F  switch on orbital magnetization
   LCHIMAG   =     F  perturbation theory with respect to B field
   DQ        =  0.001000  dq finite difference perturbation B field
   LLRAUG    =     F  two centre corrections for induced B field



--------------------------------------------------------------------------------------------------------


 quasi-Newton-method for relaxation of ions
   using selective dynamics as specified on POSCAR
   WARNING: If single coordinates had been selected the selection of coordinates
            is made according to the corresponding   d i r e c t   coordinates!
            Don't support selection of single cartesian coordinates -- sorry ...
  !
 charge density and potential will be updated during run
 non-spin polarized calculation
 RMM-DIIS sequential band-by-band and
  variant of blocked Davidson during initial phase
 perform sub-space diagonalisation
    before iterative eigenvector-optimisation
 modified Broyden-mixing scheme, WC =      100.0
 initial mixing is a Kerker type mixing with AMIX =  0.4000 and BMIX =      1.0000
 Hartree-type preconditioning will be used
 using additional bands           66
 real space projection scheme for non local part
 use partial core corrections
 calculate Harris-corrections to forces 
   (improved forces if not selfconsistent)
 use gradient corrections 
 use of overlap-Matrix (Vanderbilt PP)
 Gauss-broadening in eV      SIGMA  =   0.10


--------------------------------------------------------------------------------------------------------


  energy-cutoff  :      450.00
  volume of cell :     2671.60
      direct lattice vectors                 reciprocal lattice vectors
     9.717792020  0.000000000  0.000000000     0.102904034  0.000000000  0.000000000
     0.000000000 10.996716886  0.000000000     0.000000000  0.090936232  0.000000000
     0.000000000  0.000000000 25.000000000     0.000000000  0.000000000  0.040000000

  length of vectors
     9.717792020 10.996716886 25.000000000     0.102904034  0.090936232  0.040000000


 
 k-points in units of 2pi/SCALE and weight: K-Spacing Value to Generate K-Mesh: 0.03
   0.00000000  0.00000000  0.00000000       0.111
   0.03430134  0.00000000  0.00000000       0.222
   0.00000000  0.03031208  0.00000000       0.222
   0.03430134  0.03031208  0.00000000       0.222
  -0.03430134  0.03031208  0.00000000       0.222
 
 k-points in reciprocal lattice and weights: K-Spacing Value to Generate K-Mesh: 0.03
   0.00000000  0.00000000  0.00000000       0.111
   0.33333333  0.00000000  0.00000000       0.222
   0.00000000  0.33333333  0.00000000       0.222
   0.33333333  0.33333333  0.00000000       0.222
  -0.33333333  0.33333333  0.00000000       0.222
 
 position of ions in fractional coordinates (direct lattice) 
   0.00000000  0.00000000  0.00000000
   0.33333333  0.00000000  0.09162022
   0.16772709  0.00228552  0.18486438
   0.25000000  0.12500000  0.00000000
   0.08333333  0.12500000  0.09162022
   0.41624276  0.12584316  0.18388715
   0.99639966  0.99897743  0.27743060
   0.24357182  0.11468224  0.27831058
   0.00000000  0.25000000  0.00000000
   0.33333333  0.25000000  0.09162022
   0.16780856  0.25221078  0.18510951
   0.25000000  0.37500000  0.00000000
   0.08333333  0.37500000  0.09162022
   0.41616597  0.37502043  0.18519052
   0.99423455  0.24846272  0.27595327
   0.23655617  0.37500425  0.28185661
   0.00000000  0.50000000  0.00000000
   0.33333333  0.50000000  0.09162022
   0.16795961  0.49797321  0.18518116
   0.25000000  0.62500000  0.00000000
   0.08333333  0.62500000  0.09162022
   0.41648776  0.62424876  0.18392897
   0.99420231  0.50136999  0.27597474
   0.24373506  0.63520984  0.27832544
   0.00000000  0.75000000  0.00000000
   0.33333333  0.75000000  0.09162022
   0.16776274  0.74751815  0.18485732
   0.25000000  0.87500000  0.00000000
   0.08333333  0.87500000  0.09162022
   0.41573147  0.87499715  0.18311452
   0.99646404  0.75097363  0.27744528
   0.24807421  0.87495098  0.27734289
   0.50000000  0.00000000  0.00000000
   0.83333333  0.00000000  0.09162022
   0.66719701  0.00005275  0.18298030
   0.75000000  0.12500000  0.00000000
   0.58333333  0.12500000  0.09162022
   0.91665176  0.12530254  0.18305910
   0.50331624  0.99755261  0.27526430
   0.75297577  0.12226258  0.27752528
   0.50000000  0.25000000  0.00000000
   0.83333333  0.25000000  0.09162022
   0.66429936  0.24994076  0.18513826
   0.75000000  0.37500000  0.00000000
   0.58333333  0.37500000  0.09162022
   0.91509846  0.37502913  0.18284250
   0.51398749  0.24792949  0.27906193
   0.75477825  0.37501096  0.27759114
   0.50000000  0.50000000  0.00000000
   0.83333333  0.50000000  0.09162022
   0.66435750  0.50005629  0.18515962
   0.75000000  0.62500000  0.00000000
   0.58333333  0.62500000  0.09162022
   0.91670166  0.62472765  0.18309481
   0.51406188  0.50197137  0.27914452
   0.75291666  0.62790932  0.27749354
   0.50000000  0.75000000  0.00000000
   0.83333333  0.75000000  0.09162022
   0.66736973  0.75002920  0.18298983
   0.75000000  0.87500000  0.00000000
   0.58333333  0.87500000  0.09162022
   0.91916648  0.87499553  0.18311986
   0.50340401  0.75267266  0.27529773
   0.75209874  0.87503285  0.27663746
   0.33974260  0.24035782  0.32424165
   0.33975067  0.50942551  0.32427109
 
 position of ions in cartesian coordinates  (Angst):
   0.00000000  0.00000000  0.00000000
   3.23926402  0.00000000  2.29050552
   1.62993694  0.02513319  4.62160956
   2.42944800  1.37458961  0.00000000
   0.80981602  1.37458961  2.29050552
   4.04496054  1.38386155  4.59717887
   9.68280462 10.98547200  6.93576507
   2.36698025  1.26112810  6.95776449
   0.00000000  2.74917922  0.00000000
   3.23926402  2.74917922  2.29050552
   1.63072870  2.77349059  4.62773769
   2.42944800  4.12376883  0.00000000
   0.80981602  4.12376883  2.29050552
   4.04421435  4.12399346  4.62976300
   9.66176459  2.73227422  6.89883171
   2.29880364  4.12381562  7.04641519
   0.00000000  5.49835844  0.00000000
   3.23926402  5.49835844  2.29050552
   1.63219657  5.47607039  4.62952912
   2.42944800  6.87294805  0.00000000
   0.80981602  6.87294805  2.29050552
   4.04734141  6.86468683  4.59822437
   9.66145126  5.51342383  6.89936844
   2.36856659  6.98522282  6.95813606
   0.00000000  8.24753766  0.00000000
   3.23926402  8.24753766  2.29050552
   1.63028344  8.22024545  4.62143293
   2.42944800  9.62212728  0.00000000
   0.80981602  9.62212728  2.29050552
   4.03999200  9.62209595  4.57786303
   9.68343028  8.25824438  6.93613197
   2.41073362  9.62158822  6.93357220
   4.85889601  0.00000000  0.00000000
   8.09816003  0.00000000  2.29050552
   6.48368182  0.00058012  4.57450756
   7.28834401  1.37458961  0.00000000
   5.66871203  1.37458961  2.29050552
   8.90783116  1.37791651  4.57647751
   4.89112255 10.96980366  6.88160757
   7.31726196  1.34448693  6.93813204
   4.85889601  2.74917922  0.00000000
   8.09816003  2.74917922  2.29050552
   6.45552305  2.74852774  4.62845653
   7.28834401  4.12376883  0.00000000
   5.66871203  4.12376883  2.29050552
   8.89273652  4.12408916  4.57106261
   4.99482350  2.72641039  6.97654830
   7.33477805  4.12388933  6.93977847
   4.85889601  5.49835844  0.00000000
   8.09816003  5.49835844  2.29050552
   6.45608805  5.49897750  4.62899060
   7.28834401  6.87294805  0.00000000
   5.66871203  6.87294805  2.29050552
   8.90831607  6.86995307  4.57737030
   4.99554641  5.52003704  6.97861289
   7.31668748  6.90494102  6.93733850
   4.85889601  8.24753766  0.00000000
   8.09816003  8.24753766  2.29050552
   6.48536019  8.24785882  4.57474568
   7.28834401  9.62212728  0.00000000
   5.66871203  9.62212728  2.29050552
   8.93226872  9.62207813  4.57799653
   4.89197547  8.27692815  6.88244327
   7.30873911  9.62248857  6.91593649
   3.30154794  2.64314694  8.10604123
   3.30162632  5.60200812  8.10677716
 


--------------------------------------------------------------------------------------------------------


 k-point  1 :   0.0000 0.0000 0.0000  plane waves:   57873
 k-point  2 :   0.3333 0.0000 0.0000  plane waves:   57886
 k-point  3 :   0.0000 0.3333 0.0000  plane waves:   57942
 k-point  4 :   0.3333 0.3333 0.0000  plane waves:   57931
 k-point  5 :  -0.3333 0.3333 0.0000  plane waves:   57931

 maximum and minimum number of plane-waves per node :      7285     7205

 maximum number of plane-waves:     57942
 maximum index in each direction: 
   IXMAX=   17   IYMAX=   19   IZMAX=   43
   IXMIN=  -17   IYMIN=  -19   IZMIN=  -43


 real space projection operators:
  total allocation   :      18229.47 KBytes
  max/ min on nodes  :       2573.38       2157.73


 parallel 3D FFT for wavefunctions:
    minimum data exchange during FFTs selected (reduces bandwidth)
 parallel 3D FFT for charge:
    minimum data exchange during FFTs selected (reduces bandwidth)


 total amount of memory used by VASP MPI-rank0    74719. kBytes
=======================================================================

   base      :      30000. kBytes
   nonlr-proj:       5528. kBytes
   fftplans  :       3935. kBytes
   grid      :       6141. kBytes
   one-center:        139. kBytes
   wavefun   :      28976. kBytes
 
     INWAV:  cpu time    0.0000: real time    0.0001
 Broyden mixing: mesh for mixing (old mesh)
   NGX = 33   NGY = 39   NGZ = 87
  (NGX  =100   NGY  =120   NGZ  =280)
  gives a total of 111969 points

 initial charge density was supplied:
 charge density of overlapping atoms calculated
 number of electron     652.0000000 magnetization 
 keeping initial charge density in first step


--------------------------------------------------------------------------------------------------------


 Maximum index for non-local projection operator          408
 Maximum index for augmentation-charges          561 (set IRDMAX)


--------------------------------------------------------------------------------------------------------


 First call to EWALD:  gamma=   0.128
 Maximum number of real-space cells 4x 3x 2
 Maximum number of reciprocal cells 2x 2x 5

    FEWALD:  cpu time    0.0020: real time    0.0024


--------------------------------------- Iteration      1(   1)  ---------------------------------------


    POTLOK:  cpu time    0.0348: real time    0.1469
    SETDIJ:  cpu time    0.0042: real time    0.0044
     EDDAV:  cpu time    8.6558: real time    8.6729
       DOS:  cpu time    0.0007: real time    0.0007
    --------------------------------------------
      LOOP:  cpu time    8.6955: real time    8.8249

 eigenvalue-minimisations  :  3920
 total energy-change (2. order) : 0.4317492E+04  (-0.2690510E+05)
 number of electron     652.0000000 magnetization 
 augmentation part      652.0000000 magnetization 

 DIPCOR: dipole corrections for dipol
 direction  3 min pos   170,
 dipolmoment           0.000000      0.000000     -0.000328 electrons x Angstroem
 Tr[quadrupol]    -12128.271244

 energy correction for charged system         0.000000 eV
 dipol+quadrupol energy correction           -0.000000 eV
 added-field ion interaction          0.013822 eV  (added to PSCEN)


 Free energy of the ion-electron system (eV)
  ---------------------------------------------------
  alpha Z        PSCENC =      1496.04541187
  Ewald energy   TEWEN  =    247990.46939528
  -Hartree energ DENC   =   -298041.08448351
  -exchange      EXHF   =         0.00000000
  -V(xc)+E(xc)   XCENC  =       274.90037016
  PAW double counting   =     45245.00522118   -43438.47517393
  entropy T*S    EENTRO =        -0.13169720
  eigenvalues    EBANDS =      3262.88620557
  atomic energy  EATOM  =     47527.87699037
  Solvation  Ediel_sol  =         0.00000000
  ---------------------------------------------------
  free energy    TOTEN  =      4317.49223980 eV

  energy without entropy =     4317.62393700  energy(sigma->0) =     4317.55808840


--------------------------------------------------------------------------------------------------------




--------------------------------------- Iteration      1(   2)  ---------------------------------------


     EDDAV:  cpu time    9.7631: real time    9.7836
       DOS:  cpu time    0.0007: real time    0.0007
    --------------------------------------------
      LOOP:  cpu time    9.7638: real time    9.7842

 eigenvalue-minimisations  :  4608
 total energy-change (2. order) :-0.4381044E+04  (-0.4042284E+04)
 number of electron     652.0000000 magnetization 
 augmentation part      652.0000000 magnetization 

 DIPCOR: dipole corrections for dipol
 direction  3 min pos   170,
 dipolmoment           0.000000      0.000000     -0.000328 electrons x Angstroem
 Tr[quadrupol]    -12128.271244

 energy correction for charged system         0.000000 eV
 dipol+quadrupol energy correction           -0.000000 eV
 added-field ion interaction          0.013822 eV  (added to PSCEN)


 Free energy of the ion-electron system (eV)
  ---------------------------------------------------
  alpha Z        PSCENC =      1496.04541187
  Ewald energy   TEWEN  =    247990.46939528
  -Hartree energ DENC   =   -298041.08448351
  -exchange      EXHF   =         0.00000000
  -V(xc)+E(xc)   XCENC  =       274.90037016
  PAW double counting   =     45245.00522118   -43438.47517393
  entropy T*S    EENTRO =        -0.25978372
  eigenvalues    EBANDS =     -1118.02961100
  atomic energy  EATOM  =     47527.87699037
  Solvation  Ediel_sol  =         0.00000000
  ---------------------------------------------------
  free energy    TOTEN  =       -63.55166329 eV

  energy without entropy =      -63.29187957  energy(sigma->0) =      -63.42177143


--------------------------------------------------------------------------------------------------------




--------------------------------------- Iteration      1(   3)  ---------------------------------------


     EDDAV:  cpu time    9.8673: real time    9.8909
       DOS:  cpu time    0.0008: real time    0.0008
    --------------------------------------------
      LOOP:  cpu time    9.8681: real time    9.8916

 eigenvalue-minimisations  :  4688
 total energy-change (2. order) :-0.3313370E+03  (-0.2991786E+03)
 number of electron     652.0000000 magnetization 
 augmentation part      652.0000000 magnetization 

 DIPCOR: dipole corrections for dipol
 direction  3 min pos   170,
 dipolmoment           0.000000      0.000000     -0.000328 electrons x Angstroem
 Tr[quadrupol]    -12128.271244

 energy correction for charged system         0.000000 eV
 dipol+quadrupol energy correction           -0.000000 eV
 added-field ion interaction          0.013822 eV  (added to PSCEN)


 Free energy of the ion-electron system (eV)
  ---------------------------------------------------
  alpha Z        PSCENC =      1496.04541187
  Ewald energy   TEWEN  =    247990.46939528
  -Hartree energ DENC   =   -298041.08448351
  -exchange      EXHF   =         0.00000000
  -V(xc)+E(xc)   XCENC  =       274.90037016
  PAW double counting   =     45245.00522118   -43438.47517393
  entropy T*S    EENTRO =        -0.51316057
  eigenvalues    EBANDS =     -1449.11323620
  atomic energy  EATOM  =     47527.87699037
  Solvation  Ediel_sol  =         0.00000000
  ---------------------------------------------------
  free energy    TOTEN  =      -394.88866533 eV

  energy without entropy =     -394.37550476  energy(sigma->0) =     -394.63208505


--------------------------------------------------------------------------------------------------------




--------------------------------------- Iteration      1(   4)  ---------------------------------------


     EDDAV:  cpu time   10.3473: real time   10.3649
       DOS:  cpu time    0.0007: real time    0.0007
    --------------------------------------------
      LOOP:  cpu time   10.3480: real time   10.3656

 eigenvalue-minimisations  :  4968
 total energy-change (2. order) :-0.1631630E+02  (-0.1531280E+02)
 number of electron     652.0000000 magnetization 
 augmentation part      652.0000000 magnetization 

 DIPCOR: dipole corrections for dipol
 direction  3 min pos   170,
 dipolmoment           0.000000      0.000000     -0.000328 electrons x Angstroem
 Tr[quadrupol]    -12128.271244

 energy correction for charged system         0.000000 eV
 dipol+quadrupol energy correction           -0.000000 eV
 added-field ion interaction          0.013822 eV  (added to PSCEN)


 Free energy of the ion-electron system (eV)
  ---------------------------------------------------
  alpha Z        PSCENC =      1496.04541187
  Ewald energy   TEWEN  =    247990.46939528
  -Hartree energ DENC   =   -298041.08448351
  -exchange      EXHF   =         0.00000000
  -V(xc)+E(xc)   XCENC  =       274.90037016
  PAW double counting   =     45245.00522118   -43438.47517393
  entropy T*S    EENTRO =        -0.54705883
  eigenvalues    EBANDS =     -1465.39563494
  atomic energy  EATOM  =     47527.87699037
  Solvation  Ediel_sol  =         0.00000000
  ---------------------------------------------------
  free energy    TOTEN  =      -411.20496233 eV

  energy without entropy =     -410.65790351  energy(sigma->0) =     -410.93143292


--------------------------------------------------------------------------------------------------------




--------------------------------------- Iteration      1(   5)  ---------------------------------------


     EDDAV:  cpu time   10.1028: real time   10.1239
       DOS:  cpu time    0.0008: real time    0.0008
    CHARGE:  cpu time    0.1458: real time    0.1462
    MIXING:  cpu time    0.0015: real time    0.0017
    --------------------------------------------
      LOOP:  cpu time   10.2509: real time   10.2727

 eigenvalue-minimisations  :  4832
 total energy-change (2. order) :-0.4380477E+00  (-0.4348363E+00)
 number of electron     652.0000215 magnetization 
 augmentation part      187.4845708 magnetization 

 DIPCOR: dipole corrections for dipol
 direction  3 min pos   170,
 dipolmoment           0.000000      0.000000     -0.000328 electrons x Angstroem
 Tr[quadrupol]    -12128.271244

 energy correction for charged system         0.000000 eV
 dipol+quadrupol energy correction           -0.000000 eV
 added-field ion interaction          0.013822 eV  (added to PSCEN)


 Broyden mixing:
  rms(total) = 0.87853E+01    rms(broyden)= 0.87852E+01
  rms(prec ) = 0.88836E+01
  weight for this iteration     100.00

 Free energy of the ion-electron system (eV)
  ---------------------------------------------------
  alpha Z        PSCENC =      1496.04541187
  Ewald energy   TEWEN  =    247990.46939528
  -Hartree energ DENC   =   -298041.08448351
  -exchange      EXHF   =         0.00000000
  -V(xc)+E(xc)   XCENC  =       274.90037016
  PAW double counting   =     45245.00522118   -43438.47517393
  entropy T*S    EENTRO =        -0.54801095
  eigenvalues    EBANDS =     -1465.83273050
  atomic energy  EATOM  =     47527.87699037
  Solvation  Ediel_sol  =         0.00000000
  ---------------------------------------------------
  free energy    TOTEN  =      -411.64301002 eV

  energy without entropy =     -411.09499907  energy(sigma->0) =     -411.36900454


--------------------------------------------------------------------------------------------------------




--------------------------------------- Iteration      1(   6)  ---------------------------------------


    POTLOK:  cpu time    0.0302: real time    0.0304
    SETDIJ:  cpu time    0.0037: real time    0.0037
    EDDIAG:  cpu time    1.2353: real time    1.2373
  RMM-DIIS:  cpu time    3.4951: real time    3.5032
    ORTHCH:  cpu time    0.5638: real time    0.5644
       DOS:  cpu time    0.0008: real time    0.0008
    CHARGE:  cpu time    0.1503: real time    0.1505
    MIXING:  cpu time    0.0014: real time    0.0014
    --------------------------------------------
      LOOP:  cpu time    5.4806: real time    5.4917

 eigenvalue-minimisations  :  3937
 total energy-change (2. order) : 0.1536468E+02  (-0.8051291E+01)
 number of electron     652.0000217 magnetization 
 augmentation part      197.8524131 magnetization 

 DIPCOR: dipole corrections for dipol
 direction  3 min pos   187,
 dipolmoment           0.000000      0.000000     -0.148907 electrons x Angstroem
 Tr[quadrupol]    -12118.353843

 energy correction for charged system         0.000000 eV
 dipol+quadrupol energy correction           -0.000751 eV
 added-field ion interaction         -3.709793 eV  (added to PSCEN)


 Broyden mixing:
  rms(total) = 0.63169E+01    rms(broyden)= 0.63167E+01
  rms(prec ) = 0.67569E+01
  weight for this iteration     100.00

 eigenvalues of (default mixing * dielectric matrix)
  average eigenvalue GAMMA=   1.1934
  1.1934

 Free energy of the ion-electron system (eV)
  ---------------------------------------------------
  alpha Z        PSCENC =      1492.32104625
  Ewald energy   TEWEN  =    247990.46939528
  -Hartree energ DENC   =   -297300.89445252
  -exchange      EXHF   =         0.00000000
  -V(xc)+E(xc)   XCENC  =       260.32881093
  PAW double counting   =     50150.02448485   -48439.62659783
  entropy T*S    EENTRO =        -0.54437730
  eigenvalues    EBANDS =     -2076.23363420
  atomic energy  EATOM  =     47527.87699037
  Solvation  Ediel_sol  =         0.00000000
  ---------------------------------------------------
  free energy    TOTEN  =      -396.27833418 eV

  energy without entropy =     -395.73395688  energy(sigma->0) =     -396.00614553


--------------------------------------------------------------------------------------------------------




--------------------------------------- Iteration      1(   7)  ---------------------------------------


    POTLOK:  cpu time    0.0294: real time    0.0414
    SETDIJ:  cpu time    0.0037: real time    0.0037
    EDDIAG:  cpu time    1.2324: real time    1.2341
  RMM-DIIS:  cpu time    3.7355: real time    3.7410
    ORTHCH:  cpu time    0.5617: real time    0.5623
       DOS:  cpu time    0.0008: real time    0.0008
    CHARGE:  cpu time    0.1438: real time    0.1442
    MIXING:  cpu time    0.0009: real time    0.0009
    --------------------------------------------
      LOOP:  cpu time    5.7081: real time    5.7283

 eigenvalue-minimisations  :  4160
 total energy-change (2. order) :-0.1899225E+03  (-0.3011422E+02)
 number of electron     652.0000293 magnetization 
 augmentation part      192.4648730 magnetization 

 DIPCOR: dipole corrections for dipol
 direction  3 min pos   181,
 dipolmoment           0.000000      0.000000      4.274025 electrons x Angstroem
 Tr[quadrupol]    -12140.960941

 energy correction for charged system         0.000000 eV
 dipol+quadrupol energy correction           -0.618673 eV
 added-field ion interaction          5.361678 eV  (added to PSCEN)


 Broyden mixing:
  rms(total) = 0.99852E+01    rms(broyden)= 0.99850E+01
  rms(prec ) = 0.13110E+02
  weight for this iteration     100.00

 eigenvalues of (default mixing * dielectric matrix)
  average eigenvalue GAMMA=   0.9789
  1.7429  0.2148

 Free energy of the ion-electron system (eV)
  ---------------------------------------------------
  alpha Z        PSCENC =      1500.77459526
  Ewald energy   TEWEN  =    247990.46939528
  -Hartree energ DENC   =   -297839.22874862
  -exchange      EXHF   =         0.00000000
  -V(xc)+E(xc)   XCENC  =       253.96032508
  PAW double counting   =     53336.85723720   -51660.99501037
  entropy T*S    EENTRO =        -0.40546149
  eigenvalues    EBANDS =     -1695.51011350
  atomic energy  EATOM  =     47527.87699037
  Solvation  Ediel_sol  =         0.00000000
  ---------------------------------------------------
  free energy    TOTEN  =      -586.20079079 eV

  energy without entropy =     -585.79532930  energy(sigma->0) =     -585.99806004


--------------------------------------------------------------------------------------------------------




--------------------------------------- Iteration      1(   8)  ---------------------------------------


    POTLOK:  cpu time    0.0295: real time    0.0297
    SETDIJ:  cpu time    0.0036: real time    0.0036
    EDDIAG:  cpu time    1.2358: real time    1.2375
  RMM-DIIS:  cpu time    3.5002: real time    3.5079
    ORTHCH:  cpu time    0.5616: real time    0.5623
       DOS:  cpu time    0.0008: real time    0.0008
    CHARGE:  cpu time    0.1444: real time    0.1446
    MIXING:  cpu time    0.0010: real time    0.0010
    --------------------------------------------
      LOOP:  cpu time    5.4769: real time    5.4875

 eigenvalue-minimisations  :  3923
 total energy-change (2. order) : 0.5590129E+02  (-0.1411305E+02)
 number of electron     652.0000244 magnetization 
 augmentation part      196.6794097 magnetization 

 DIPCOR: dipole corrections for dipol
 direction  3 min pos   184,
 dipolmoment           0.000000      0.000000     -2.565663 electrons x Angstroem
 Tr[quadrupol]    -12138.276161

 energy correction for charged system         0.000000 eV
 dipol+quadrupol energy correction           -0.222939 eV
 added-field ion interaction        -33.569012 eV  (added to PSCEN)


 Broyden mixing:
  rms(total) = 0.92765E+01    rms(broyden)= 0.92763E+01
  rms(prec ) = 0.11730E+02
  weight for this iteration     100.00

 eigenvalues of (default mixing * dielectric matrix)
  average eigenvalue GAMMA=   0.8724
  2.1858  0.2195  0.2117

 Free energy of the ion-electron system (eV)
  ---------------------------------------------------
  alpha Z        PSCENC =      1462.23963910
  Ewald energy   TEWEN  =    247990.46939528
  -Hartree energ DENC   =   -297716.51537915
  -exchange      EXHF   =         0.00000000
  -V(xc)+E(xc)   XCENC  =       250.13520908
  PAW double counting   =     55663.96112757   -54019.92409712
  entropy T*S    EENTRO =        -0.24546140
  eigenvalues    EBANDS =     -1688.29692122
  atomic energy  EATOM  =     47527.87699037
  Solvation  Ediel_sol  =         0.00000000
  ---------------------------------------------------
  free energy    TOTEN  =      -530.29949749 eV

  energy without entropy =     -530.05403609  energy(sigma->0) =     -530.17676679


--------------------------------------------------------------------------------------------------------




--------------------------------------- Iteration      1(   9)  ---------------------------------------


    POTLOK:  cpu time    0.0300: real time    0.0301
    SETDIJ:  cpu time    0.0036: real time    0.0036
    EDDIAG:  cpu time    1.2327: real time    1.2343
  RMM-DIIS:  cpu time    3.4877: real time    3.5101
    ORTHCH:  cpu time    0.5661: real time    0.5666
       DOS:  cpu time    0.0008: real time    0.0008
    CHARGE:  cpu time    0.1444: real time    0.1448
    MIXING:  cpu time    0.0009: real time    0.0009
    --------------------------------------------
      LOOP:  cpu time    5.4662: real time    5.4912

 eigenvalue-minimisations  :  3932
 total energy-change (2. order) : 0.1182805E+03  (-0.7054516E+01)
 number of electron     652.0000276 magnetization 
 augmentation part      200.5043599 magnetization 

 DIPCOR: dipole corrections for dipol
 direction  3 min pos   185,
 dipolmoment           0.000000      0.000000      0.730456 electrons x Angstroem
 Tr[quadrupol]    -12128.728990

 energy correction for charged system         0.000000 eV
 dipol+quadrupol energy correction           -0.018071 eV
 added-field ion interaction         12.437546 eV  (added to PSCEN)


 Broyden mixing:
  rms(total) = 0.43321E+01    rms(broyden)= 0.43320E+01
  rms(prec ) = 0.58386E+01
  weight for this iteration     100.00

 eigenvalues of (default mixing * dielectric matrix)
  average eigenvalue GAMMA=   0.8011
  2.0985  0.4835  0.4835  0.1390

 Free energy of the ion-electron system (eV)
  ---------------------------------------------------
  alpha Z        PSCENC =      1508.45106543
  Ewald energy   TEWEN  =    247990.46939528
  -Hartree energ DENC   =   -297309.64753440
  -exchange      EXHF   =         0.00000000
  -V(xc)+E(xc)   XCENC  =       248.66585579
  PAW double counting   =     57812.68861704   -56196.34023375
  entropy T*S    EENTRO =        -0.42537695
  eigenvalues    EBANDS =     -1993.75780643
  atomic energy  EATOM  =     47527.87699037
  Solvation  Ediel_sol  =         0.00000000
  ---------------------------------------------------
  free energy    TOTEN  =      -412.01902763 eV

  energy without entropy =     -411.59365067  energy(sigma->0) =     -411.80633915


--------------------------------------------------------------------------------------------------------




--------------------------------------- Iteration      1(  10)  ---------------------------------------


    POTLOK:  cpu time    0.0296: real time    0.0410
    SETDIJ:  cpu time    0.0036: real time    0.0036
    EDDIAG:  cpu time    1.2320: real time    1.2361
  RMM-DIIS:  cpu time    3.4967: real time    3.5020
    ORTHCH:  cpu time    0.5639: real time    0.5645
       DOS:  cpu time    0.0008: real time    0.0008
    CHARGE:  cpu time    0.1451: real time    0.1454
    MIXING:  cpu time    0.0010: real time    0.0010
    --------------------------------------------
      LOOP:  cpu time    5.4728: real time    5.4945

 eigenvalue-minimisations  :  3926
 total energy-change (2. order) : 0.1112764E+02  (-0.5366652E+01)
 number of electron     652.0000227 magnetization 
 augmentation part      200.2522968 magnetization 

 DIPCOR: dipole corrections for dipol
 direction  3 min pos   190,
 dipolmoment           0.000000      0.000000     -0.124894 electrons x Angstroem
 Tr[quadrupol]    -12124.327626

 energy correction for charged system         0.000000 eV
 dipol+quadrupol energy correction           -0.000528 eV
 added-field ion interaction         -4.588951 eV  (added to PSCEN)


 Broyden mixing:
  rms(total) = 0.42039E+01    rms(broyden)= 0.42038E+01
  rms(prec ) = 0.47855E+01
  weight for this iteration     100.00

 eigenvalues of (default mixing * dielectric matrix)
  average eigenvalue GAMMA=   0.7105
  2.1491  0.6607  0.3914  0.1371  0.2143

 Free energy of the ion-electron system (eV)
  ---------------------------------------------------
  alpha Z        PSCENC =      1491.44211128
  Ewald energy   TEWEN  =    247990.46939528
  -Hartree energ DENC   =   -297262.06489216
  -exchange      EXHF   =         0.00000000
  -V(xc)+E(xc)   XCENC  =       251.61355187
  PAW double counting   =     57901.53660796   -56279.51854668
  entropy T*S    EENTRO =        -0.46084869
  eigenvalues    EBANDS =     -2021.78575514
  atomic energy  EATOM  =     47527.87699037
  Solvation  Ediel_sol  =         0.00000000
  ---------------------------------------------------
  free energy    TOTEN  =      -400.89138592 eV

  energy without entropy =     -400.43053723  energy(sigma->0) =     -400.66096157


--------------------------------------------------------------------------------------------------------




--------------------------------------- Iteration      1(  11)  ---------------------------------------


    POTLOK:  cpu time    0.0292: real time    0.0293
    SETDIJ:  cpu time    0.0036: real time    0.0036
    EDDIAG:  cpu time    1.2352: real time    1.2369
  RMM-DIIS:  cpu time    3.4927: real time    3.4979
    ORTHCH:  cpu time    0.5644: real time    0.5647
       DOS:  cpu time    0.0009: real time    0.0008
    CHARGE:  cpu time    0.1458: real time    0.1461
    MIXING:  cpu time    0.0011: real time    0.0011
    --------------------------------------------
      LOOP:  cpu time    5.4728: real time    5.4806

 eigenvalue-minimisations  :  3937
 total energy-change (2. order) : 0.1150641E+02  (-0.9950322E+00)
 number of electron     652.0000220 magnetization 
 augmentation part      200.1014497 magnetization 

 DIPCOR: dipole corrections for dipol
 direction  3 min pos   193,
 dipolmoment           0.000000      0.000000     -0.343049 electrons x Angstroem
 Tr[quadrupol]    -12123.644849

 energy correction for charged system         0.000000 eV
 dipol+quadrupol energy correction           -0.003986 eV
 added-field ion interaction        -16.662690 eV  (added to PSCEN)


 Broyden mixing:
  rms(total) = 0.25010E+01    rms(broyden)= 0.25008E+01
  rms(prec ) = 0.33092E+01
  weight for this iteration     100.00

 eigenvalues of (default mixing * dielectric matrix)
  average eigenvalue GAMMA=   0.6861
  2.1591  0.7849  0.3961  0.3961  0.1430  0.2373

 Free energy of the ion-electron system (eV)
  ---------------------------------------------------
  alpha Z        PSCENC =      1479.36491431
  Ewald energy   TEWEN  =    247990.46939528
  -Hartree energ DENC   =   -297282.12943241
  -exchange      EXHF   =         0.00000000
  -V(xc)+E(xc)   XCENC  =       252.53332573
  PAW double counting   =     58093.73213469   -56471.69131152
  entropy T*S    EENTRO =        -0.53238955
  eigenvalues    EBANDS =     -1979.00860506
  atomic energy  EATOM  =     47527.87699037
  Solvation  Ediel_sol  =         0.00000000
  ---------------------------------------------------
  free energy    TOTEN  =      -389.38497818 eV

  energy without entropy =     -388.85258862  energy(sigma->0) =     -389.11878340


--------------------------------------------------------------------------------------------------------




--------------------------------------- Iteration      1(  12)  ---------------------------------------


    POTLOK:  cpu time    0.0304: real time    0.0385
    SETDIJ:  cpu time    0.0036: real time    0.0036
    EDDIAG:  cpu time    1.2298: real time    1.2343
  RMM-DIIS:  cpu time    3.5103: real time    3.5154
    ORTHCH:  cpu time    0.5630: real time    0.5637
       DOS:  cpu time    0.0008: real time    0.0008
    CHARGE:  cpu time    0.1453: real time    0.1456
    MIXING:  cpu time    0.0011: real time    0.0011
    --------------------------------------------
      LOOP:  cpu time    5.4844: real time    5.5030

 eigenvalue-minimisations  :  3939
 total energy-change (2. order) : 0.2606689E+01  (-0.4878829E+00)
 number of electron     652.0000235 magnetization 
 augmentation part      200.1222445 magnetization 

 DIPCOR: dipole corrections for dipol
 direction  3 min pos   192,
 dipolmoment           0.000000      0.000000      0.174428 electrons x Angstroem
 Tr[quadrupol]    -12125.308198

 energy correction for charged system         0.000000 eV
 dipol+quadrupol energy correction           -0.001030 eV
 added-field ion interaction          7.784595 eV  (added to PSCEN)


 Broyden mixing:
  rms(total) = 0.17521E+01    rms(broyden)= 0.17520E+01
  rms(prec ) = 0.20377E+01
  weight for this iteration     100.00

 eigenvalues of (default mixing * dielectric matrix)
  average eigenvalue GAMMA=   0.6389
  2.0354  0.9490  0.4183  0.4183  0.3288  0.1438  0.1787

 Free energy of the ion-electron system (eV)
  ---------------------------------------------------
  alpha Z        PSCENC =      1503.81515459
  Ewald energy   TEWEN  =    247990.46939528
  -Hartree energ DENC   =   -297301.68327881
  -exchange      EXHF   =         0.00000000
  -V(xc)+E(xc)   XCENC  =       252.58150406
  PAW double counting   =     58169.21083299   -56548.14892197
  entropy T*S    EENTRO =        -0.49052188
  eigenvalues    EBANDS =     -1980.40944357
  atomic energy  EATOM  =     47527.87699037
  Solvation  Ediel_sol  =         0.00000000
  ---------------------------------------------------
  free energy    TOTEN  =      -386.77828895 eV

  energy without entropy =     -386.28776707  energy(sigma->0) =     -386.53302801


--------------------------------------------------------------------------------------------------------




--------------------------------------- Iteration      1(  13)  ---------------------------------------


    POTLOK:  cpu time    0.0298: real time    0.0299
    SETDIJ:  cpu time    0.0036: real time    0.0036
    EDDIAG:  cpu time    1.2312: real time    1.2329
  RMM-DIIS:  cpu time    3.4901: real time    3.4978
    ORTHCH:  cpu time    0.5628: real time    0.5634
       DOS:  cpu time    0.0008: real time    0.0008
    CHARGE:  cpu time    0.1459: real time    0.1462
    MIXING:  cpu time    0.0012: real time    0.0012
    --------------------------------------------
      LOOP:  cpu time    5.4653: real time    5.4758

 eigenvalue-minimisations  :  3936
 total energy-change (2. order) : 0.2126688E+01  (-0.2011443E+00)
 number of electron     652.0000225 magnetization 
 augmentation part      199.8829142 magnetization 

 DIPCOR: dipole corrections for dipol
 direction  3 min pos   181,
 dipolmoment           0.000000      0.000000     -0.204834 electrons x Angstroem
 Tr[quadrupol]    -12124.989770

 energy correction for charged system         0.000000 eV
 dipol+quadrupol energy correction           -0.001421 eV
 added-field ion interaction         -0.256961 eV  (added to PSCEN)


 Broyden mixing:
  rms(total) = 0.10212E+01    rms(broyden)= 0.10212E+01
  rms(prec ) = 0.12995E+01
  weight for this iteration     100.00

 eigenvalues of (default mixing * dielectric matrix)
  average eigenvalue GAMMA=   0.6060
  2.0172  0.8798  0.5030  0.5030  0.3116  0.3116  0.1456  0.1765

 Free energy of the ion-electron system (eV)
  ---------------------------------------------------
  alpha Z        PSCENC =      1495.77320843
  Ewald energy   TEWEN  =    247990.46939528
  -Hartree energ DENC   =   -297306.67990502
  -exchange      EXHF   =         0.00000000
  -V(xc)+E(xc)   XCENC  =       252.77346762
  PAW double counting   =     58024.50969019   -56401.01588565
  entropy T*S    EENTRO =        -0.55469728
  eigenvalues    EBANDS =     -1967.80386529
  atomic energy  EATOM  =     47527.87699037
  Solvation  Ediel_sol  =         0.00000000
  ---------------------------------------------------
  free energy    TOTEN  =      -384.65160135 eV

  energy without entropy =     -384.09690407  energy(sigma->0) =     -384.37425271


--------------------------------------------------------------------------------------------------------




--------------------------------------- Iteration      1(  14)  ---------------------------------------


    POTLOK:  cpu time    0.0285: real time    0.0286
    SETDIJ:  cpu time    0.0036: real time    0.0036
    EDDIAG:  cpu time    1.2314: real time    1.2331
  RMM-DIIS:  cpu time    3.5388: real time    3.5446
    ORTHCH:  cpu time    0.5659: real time    0.5665
       DOS:  cpu time    0.0008: real time    0.0008
    CHARGE:  cpu time    0.1478: real time    0.1480
    MIXING:  cpu time    0.0013: real time    0.0013
    --------------------------------------------
      LOOP:  cpu time    5.5180: real time    5.5266

 eigenvalue-minimisations  :  3944
 total energy-change (2. order) : 0.6663041E+00  (-0.5959962E-01)
 number of electron     652.0000230 magnetization 
 augmentation part      199.9083597 magnetization 

 DIPCOR: dipole corrections for dipol
 direction  3 min pos   188,
 dipolmoment           0.000000      0.000000     -0.013428 electrons x Angstroem
 Tr[quadrupol]    -12124.967142

 energy correction for charged system         0.000000 eV
 dipol+quadrupol energy correction           -0.000006 eV
 added-field ion interaction         -0.387497 eV  (added to PSCEN)


 Broyden mixing:
  rms(total) = 0.63851E+00    rms(broyden)= 0.63850E+00
  rms(prec ) = 0.72125E+00
  weight for this iteration     100.00

 eigenvalues of (default mixing * dielectric matrix)
  average eigenvalue GAMMA=   0.5949
  2.0251  0.7768  0.7768  0.5021  0.3708  0.3708  0.2251  0.1469  0.1597

 Free energy of the ion-electron system (eV)
  ---------------------------------------------------
  alpha Z        PSCENC =      1495.64408672
  Ewald energy   TEWEN  =    247990.46939528
  -Hartree energ DENC   =   -297306.49741075
  -exchange      EXHF   =         0.00000000
  -V(xc)+E(xc)   XCENC  =       252.78192764
  PAW double counting   =     58000.79616208   -56377.05723962
  entropy T*S    EENTRO =        -0.56082118
  eigenvalues    EBANDS =     -1967.43838776
  atomic energy  EATOM  =     47527.87699037
  Solvation  Ediel_sol  =         0.00000000
  ---------------------------------------------------
  free energy    TOTEN  =      -383.98529723 eV

  energy without entropy =     -383.42447605  energy(sigma->0) =     -383.70488664


--------------------------------------------------------------------------------------------------------




--------------------------------------- Iteration      1(  15)  ---------------------------------------


    POTLOK:  cpu time    0.0289: real time    0.0290
    SETDIJ:  cpu time    0.0036: real time    0.0036
    EDDIAG:  cpu time    1.2311: real time    1.2329
  RMM-DIIS:  cpu time    3.5246: real time    3.5324
    ORTHCH:  cpu time    0.5633: real time    0.5638
       DOS:  cpu time    0.0009: real time    0.0009
    CHARGE:  cpu time    0.1455: real time    0.1458
    MIXING:  cpu time    0.0014: real time    0.0014
    --------------------------------------------
      LOOP:  cpu time    5.4992: real time    5.5098

 eigenvalue-minimisations  :  3945
 total energy-change (2. order) : 0.1049299E+00  (-0.2616125E-01)
 number of electron     652.0000232 magnetization 
 augmentation part      199.9249168 magnetization 

 DIPCOR: dipole corrections for dipol
 direction  3 min pos   191,
 dipolmoment           0.000000      0.000000      0.026607 electrons x Angstroem
 Tr[quadrupol]    -12125.063400

 energy correction for charged system         0.000000 eV
 dipol+quadrupol energy correction           -0.000024 eV
 added-field ion interaction          1.082520 eV  (added to PSCEN)


 Broyden mixing:
  rms(total) = 0.53620E+00    rms(broyden)= 0.53619E+00
  rms(prec ) = 0.60624E+00
  weight for this iteration     100.00

 eigenvalues of (default mixing * dielectric matrix)
  average eigenvalue GAMMA=   0.6094
  2.0702  0.9618  0.9618  0.4405  0.4405  0.4777  0.2499  0.1464  0.1827  0.1628

 Free energy of the ion-electron system (eV)
  ---------------------------------------------------
  alpha Z        PSCENC =      1497.11408581
  Ewald energy   TEWEN  =    247990.46939528
  -Hartree energ DENC   =   -297309.32270395
  -exchange      EXHF   =         0.00000000
  -V(xc)+E(xc)   XCENC  =       252.81686680
  PAW double counting   =     58004.58412205   -56380.81825508
  entropy T*S    EENTRO =        -0.56328037
  eigenvalues    EBANDS =     -1966.03758826
  atomic energy  EATOM  =     47527.87699037
  Solvation  Ediel_sol  =         0.00000000
  ---------------------------------------------------
  free energy    TOTEN  =      -383.88036735 eV

  energy without entropy =     -383.31708698  energy(sigma->0) =     -383.59872717


--------------------------------------------------------------------------------------------------------




--------------------------------------- Iteration      1(  16)  ---------------------------------------


    POTLOK:  cpu time    0.0329: real time    0.0412
    SETDIJ:  cpu time    0.0036: real time    0.0036
    EDDIAG:  cpu time    1.2309: real time    1.2324
  RMM-DIIS:  cpu time    3.5148: real time    3.5202
    ORTHCH:  cpu time    0.5619: real time    0.5624
       DOS:  cpu time    0.0008: real time    0.0008
    CHARGE:  cpu time    0.1447: real time    0.1449
    MIXING:  cpu time    0.0015: real time    0.0015
    --------------------------------------------
      LOOP:  cpu time    5.4911: real time    5.5071

 eigenvalue-minimisations  :  3944
 total energy-change (2. order) : 0.7883507E-01  (-0.1475544E-01)
 number of electron     652.0000231 magnetization 
 augmentation part      199.9079553 magnetization 

 DIPCOR: dipole corrections for dipol
 direction  3 min pos   181,
 dipolmoment           0.000000      0.000000     -0.025257 electrons x Angstroem
 Tr[quadrupol]    -12125.261310

 energy correction for charged system         0.000000 eV
 dipol+quadrupol energy correction           -0.000022 eV
 added-field ion interaction         -0.031684 eV  (added to PSCEN)


 Broyden mixing:
  rms(total) = 0.41260E+00    rms(broyden)= 0.41259E+00
  rms(prec ) = 0.44053E+00
  weight for this iteration     100.00

 eigenvalues of (default mixing * dielectric matrix)
  average eigenvalue GAMMA=   0.6467
  2.1247  1.1434  1.1434  0.5586  0.5586  0.5010  0.2997  0.2997  0.1465  0.1793
  0.1585

 Free energy of the ion-electron system (eV)
  ---------------------------------------------------
  alpha Z        PSCENC =      1495.99988466
  Ewald energy   TEWEN  =    247990.46939528
  -Hartree energ DENC   =   -297315.75660670
  -exchange      EXHF   =         0.00000000
  -V(xc)+E(xc)   XCENC  =       252.85777901
  PAW double counting   =     58037.08050401   -56413.48243240
  entropy T*S    EENTRO =        -0.57382394
  eigenvalues    EBANDS =     -1958.27322256
  atomic energy  EATOM  =     47527.87699037
  Solvation  Ediel_sol  =         0.00000000
  ---------------------------------------------------
  free energy    TOTEN  =      -383.80153228 eV

  energy without entropy =     -383.22770834  energy(sigma->0) =     -383.51462031


--------------------------------------------------------------------------------------------------------




--------------------------------------- Iteration      1(  17)  ---------------------------------------


    POTLOK:  cpu time    0.0301: real time    0.0302
    SETDIJ:  cpu time    0.0036: real time    0.0036
    EDDIAG:  cpu time    1.2320: real time    1.2338
  RMM-DIIS:  cpu time    3.5051: real time    3.5130
    ORTHCH:  cpu time    0.5629: real time    0.5634
       DOS:  cpu time    0.0009: real time    0.0009
    CHARGE:  cpu time    0.1456: real time    0.1458
    MIXING:  cpu time    0.0015: real time    0.0015
    --------------------------------------------
      LOOP:  cpu time    5.4816: real time    5.4921

 eigenvalue-minimisations  :  3942
 total energy-change (2. order) :-0.5618093E-01  (-0.1496447E-01)
 number of electron     652.0000233 magnetization 
 augmentation part      199.8652841 magnetization 

 DIPCOR: dipole corrections for dipol
 direction  3 min pos   188,
 dipolmoment           0.000000      0.000000      0.039334 electrons x Angstroem
 Tr[quadrupol]    -12125.591725

 energy correction for charged system         0.000000 eV
 dipol+quadrupol energy correction           -0.000052 eV
 added-field ion interaction          1.135032 eV  (added to PSCEN)


 Broyden mixing:
  rms(total) = 0.41178E+00    rms(broyden)= 0.41177E+00
  rms(prec ) = 0.51011E+00
  weight for this iteration     100.00

 eigenvalues of (default mixing * dielectric matrix)
  average eigenvalue GAMMA=   0.6609
  2.1019  1.3565  1.3565  0.6466  0.6466  0.4125  0.4125  0.2984  0.2158  0.1464
  0.1780  0.1595

 Free energy of the ion-electron system (eV)
  ---------------------------------------------------
  alpha Z        PSCENC =      1497.16656978
  Ewald energy   TEWEN  =    247990.46939528
  -Hartree energ DENC   =   -297325.68726454
  -exchange      EXHF   =         0.00000000
  -V(xc)+E(xc)   XCENC  =       252.95745727
  PAW double counting   =     58074.65339587   -56451.05293030
  entropy T*S    EENTRO =        -0.57353118
  eigenvalues    EBANDS =     -1949.66779576
  atomic energy  EATOM  =     47527.87699037
  Solvation  Ediel_sol  =         0.00000000
  ---------------------------------------------------
  free energy    TOTEN  =      -383.85771320 eV

  energy without entropy =     -383.28418202  energy(sigma->0) =     -383.57094761


--------------------------------------------------------------------------------------------------------




--------------------------------------- Iteration      1(  18)  ---------------------------------------


    POTLOK:  cpu time    0.0331: real time    0.0409
    SETDIJ:  cpu time    0.0036: real time    0.0036
    EDDIAG:  cpu time    1.2300: real time    1.2319
  RMM-DIIS:  cpu time    3.5304: real time    3.5362
    ORTHCH:  cpu time    0.5614: real time    0.5619
       DOS:  cpu time    0.0009: real time    0.0008
    CHARGE:  cpu time    0.1448: real time    0.1451
    MIXING:  cpu time    0.0016: real time    0.0016
    --------------------------------------------
      LOOP:  cpu time    5.5058: real time    5.5220

 eigenvalue-minimisations  :  3944
 total energy-change (2. order) : 0.1062272E+00  (-0.1053316E-01)
 number of electron     652.0000231 magnetization 
 augmentation part      199.7959937 magnetization 

 DIPCOR: dipole corrections for dipol
 direction  3 min pos   189,
 dipolmoment           0.000000      0.000000     -0.010537 electrons x Angstroem
 Tr[quadrupol]    -12125.694095

 energy correction for charged system         0.000000 eV
 dipol+quadrupol energy correction           -0.000004 eV
 added-field ion interaction         -0.345619 eV  (added to PSCEN)


 Broyden mixing:
  rms(total) = 0.26037E+00    rms(broyden)= 0.26036E+00
  rms(prec ) = 0.29880E+00
  weight for this iteration     100.00

 eigenvalues of (default mixing * dielectric matrix)
  average eigenvalue GAMMA=   0.6632
  1.7630  1.6418  1.6418  0.7262  0.7262  0.4300  0.4300  0.3312  0.2466  0.2080
  0.1463  0.1711  0.1599

 Free energy of the ion-electron system (eV)
  ---------------------------------------------------
  alpha Z        PSCENC =      1495.68596755
  Ewald energy   TEWEN  =    247990.46939528
  -Hartree energ DENC   =   -297333.95037767
  -exchange      EXHF   =         0.00000000
  -V(xc)+E(xc)   XCENC  =       253.12536718
  PAW double counting   =     58072.72333465   -56448.51740531
  entropy T*S    EENTRO =        -0.58408019
  eigenvalues    EBANDS =     -1940.58067781
  atomic energy  EATOM  =     47527.87699037
  Solvation  Ediel_sol  =         0.00000000
  ---------------------------------------------------
  free energy    TOTEN  =      -383.75148595 eV

  energy without entropy =     -383.16740576  energy(sigma->0) =     -383.45944586


--------------------------------------------------------------------------------------------------------




--------------------------------------- Iteration      1(  19)  ---------------------------------------


    POTLOK:  cpu time    0.0305: real time    0.0323
    SETDIJ:  cpu time    0.0036: real time    0.0036
    EDDIAG:  cpu time    1.2337: real time    1.2356
  RMM-DIIS:  cpu time    3.5165: real time    3.5244
    ORTHCH:  cpu time    0.5616: real time    0.5621
       DOS:  cpu time    0.0009: real time    0.0009
    CHARGE:  cpu time    0.1457: real time    0.1459
    MIXING:  cpu time    0.0017: real time    0.0017
    --------------------------------------------
      LOOP:  cpu time    5.4942: real time    5.5065

 eigenvalue-minimisations  :  3941
 total energy-change (2. order) : 0.3336210E-01  (-0.5096957E-02)
 number of electron     652.0000231 magnetization 
 augmentation part      199.7603588 magnetization 

 DIPCOR: dipole corrections for dipol
 direction  3 min pos   190,
 dipolmoment           0.000000      0.000000     -0.010215 electrons x Angstroem
 Tr[quadrupol]    -12125.767768

 energy correction for charged system         0.000000 eV
 dipol+quadrupol energy correction           -0.000004 eV
 added-field ion interaction         -0.375328 eV  (added to PSCEN)


 Broyden mixing:
  rms(total) = 0.17364E+00    rms(broyden)= 0.17364E+00
[...]
    FORHAR:  cpu time    0.0139: real time    0.0140
    MIXING:  cpu time    0.0010: real time    0.0010
    OFIELD:  cpu time    0.0000: real time    0.0000

 ---------------------------------------------------------------------------------------------

         DFTD3 V3.0 Rev 1        
 Edisp (eV)  -35.70190

 E6    (eV) :   -13.4352
 E8    (eV) :   -22.2667
 % E8        : 62.37
    FORVDW:  cpu time    0.1761: real time    0.1810

  FORCE on cell =-STRESS in cart. coord.  units (eV):
  Direction    XX          YY          ZZ          XY          YZ          ZX
  --------------------------------------------------------------------------------------
  Alpha Z  1496.03159  1496.03159  1496.03159
  Ewald  288791.06961289165.36998************     0.01861     0.01953    87.56102
  Hartree299238.41295299394.77098************    -0.00037     0.00588    31.55652
  E(xc)   -2897.71429 -2896.95403 -2916.02020     0.00012     0.00005     0.39856
  Local  ************************609236.71157    -0.01328    -0.02154  -106.69429
  n-local   287.14333   321.06018   254.77322     0.00290     0.00363     1.06318
  augment  3353.97307  3330.48326  3449.01273    -0.00221    -0.00166    -4.11558
  Kinetic  9497.80614  9461.54771  9763.44486    -0.00428    -0.00310    -9.24043
  Fock        0.00000     0.00000     0.00000     0.00000     0.00000     0.00000
  vdW       -45.75324   -46.56921   -29.93153    -0.00016     0.00006    -0.58281
  -------------------------------------------------------------------------------------
  Total     -72.18348   -53.25740     0.19472     0.00133     0.00284    -0.05384
  in kB     -43.28902   -31.93889     0.11677     0.00080     0.00171    -0.03229
  external pressure =      -25.04 kB  Pullay stress =        0.00 kB


 VOLUME and BASIS-vectors are now :
 -----------------------------------------------------------------------------
  energy-cutoff  :      450.00
  volume of cell :     2671.60
      direct lattice vectors                 reciprocal lattice vectors
     9.717792020  0.000000000  0.000000000     0.102904034  0.000000000  0.000000000
     0.000000000 10.996716886  0.000000000     0.000000000  0.090936232  0.000000000
     0.000000000  0.000000000 25.000000000     0.000000000  0.000000000  0.040000000

  length of vectors
     9.717792020 10.996716886 25.000000000     0.102904034  0.090936232  0.040000000


 FORCES acting on ions
    electron-ion (+dipol)            ewald-force                    non-local-force                 convergence-correction
 -----------------------------------------------------------------------------------------------
   -.578E-01 0.435E-01 0.261E+04   -.379E-01 -.167E-01 -.261E+04   0.406E-01 -.175E-01 -.105E+01   -.300E-02 -.121E-02 -.163E-01
   0.228E+01 -.567E+00 0.920E+03   -.234E+01 0.500E+00 -.920E+03   0.269E-01 0.992E-01 -.447E+00   0.164E-01 0.416E-02 -.852E-02
   0.887E+01 0.145E+02 -.796E+03   -.852E+01 -.138E+02 0.796E+03   -.366E+00 -.630E+00 -.261E+00   0.110E-01 0.242E-02 0.178E-01
   0.612E+00 -.160E+00 0.261E+04   -.630E+00 0.113E+00 -.261E+04   -.258E-01 0.193E-01 -.114E+01   0.127E-01 0.199E-02 -.111E-01
   -.343E+01 -.427E+00 0.919E+03   0.345E+01 0.386E+00 -.918E+03   0.514E-01 0.490E-01 -.376E+00   0.609E-02 0.402E-02 -.778E-02
   -.342E+01 0.842E+01 -.792E+03   0.337E+01 -.829E+01 0.792E+03   0.514E-01 -.150E+00 0.684E+00   0.111E-01 0.768E-02 0.121E-01
   0.163E+02 0.182E+02 -.254E+04   -.168E+02 -.182E+02 0.254E+04   0.558E+00 -.463E-01 0.888E+00   -.273E-02 0.375E-02 0.209E-01
   0.554E+02 0.102E+03 -.244E+04   -.566E+02 -.105E+03 0.244E+04   0.123E+01 0.250E+01 0.548E+00   0.843E-02 0.575E-02 0.148E-01
   0.335E+00 -.691E-02 0.261E+04   -.196E+00 -.812E-02 -.261E+04   -.108E+00 0.542E-02 -.113E+01   -.143E-02 0.337E-03 -.143E-01
   0.106E+00 -.164E+01 0.920E+03   -.150E+00 0.160E+01 -.919E+03   0.653E-02 0.105E+00 -.292E+00   0.169E-01 0.529E-02 -.467E-02
   0.803E+01 0.104E+02 -.799E+03   -.770E+01 -.991E+01 0.799E+03   -.358E+00 -.536E+00 0.100E+00   0.128E-01 0.422E-02 0.160E-01
   0.366E+00 -.313E-02 0.261E+04   -.357E+00 0.237E-02 -.261E+04   -.357E-01 0.155E-04 -.113E+01   0.141E-01 0.737E-03 -.808E-02
   -.323E+01 -.168E-01 0.921E+03   0.316E+01 0.154E-01 -.920E+03   0.998E-01 0.259E-03 -.317E+00   0.821E-02 0.145E-02 -.404E-02
   -.333E+01 -.134E-01 -.808E+03   0.320E+01 0.128E-01 0.807E+03   0.138E+00 -.290E-04 0.802E+00   0.103E-01 0.921E-03 0.744E-02
   0.347E+02 0.169E+02 -.251E+04   -.354E+02 -.168E+02 0.251E+04   0.741E+00 -.574E-01 0.113E+01   -.137E-02 0.506E-02 0.168E-01
   0.112E+03 0.232E-01 -.241E+04   -.115E+03 -.238E-01 0.241E+04   0.300E+01 -.776E-03 0.968E+00   0.124E-01 0.782E-03 -.121E-02
   0.334E+00 0.321E-02 0.261E+04   -.195E+00 0.103E-01 -.261E+04   -.109E+00 -.538E-02 -.113E+01   -.168E-02 0.117E-02 -.135E-01
   0.113E+00 0.162E+01 0.920E+03   -.157E+00 -.159E+01 -.919E+03   0.635E-02 -.104E+00 -.291E+00   0.167E-01 -.382E-02 -.452E-02
   0.803E+01 -.104E+02 -.799E+03   -.770E+01 0.990E+01 0.799E+03   -.359E+00 0.535E+00 0.991E-01   0.120E-01 -.236E-02 0.152E-01
   0.613E+00 0.161E+00 0.261E+04   -.630E+00 -.114E+00 -.261E+04   -.258E-01 -.193E-01 -.114E+01   0.123E-01 -.195E-02 -.104E-01
   -.342E+01 0.438E+00 0.919E+03   0.345E+01 -.398E+00 -.918E+03   0.509E-01 -.493E-01 -.376E+00   0.527E-02 -.394E-02 -.738E-02
   -.343E+01 -.841E+01 -.792E+03   0.337E+01 0.828E+01 0.792E+03   0.511E-01 0.149E+00 0.684E+00   0.113E-01 -.749E-02 0.116E-01
   0.347E+02 -.169E+02 -.251E+04   -.354E+02 0.168E+02 0.251E+04   0.741E+00 0.580E-01 0.113E+01   -.115E-02 -.346E-02 0.160E-01
   0.554E+02 -.102E+03 -.244E+04   -.566E+02 0.105E+03 0.244E+04   0.123E+01 -.251E+01 0.546E+00   0.890E-02 -.570E-02 0.137E-01
   -.582E-01 -.398E-01 0.261E+04   -.373E-01 0.145E-01 -.261E+04   0.406E-01 0.174E-01 -.105E+01   -.325E-02 -.298E-03 -.154E-01
   0.228E+01 0.577E+00 0.920E+03   -.234E+01 -.509E+00 -.920E+03   0.268E-01 -.992E-01 -.446E+00   0.162E-01 -.563E-02 -.831E-02
   0.885E+01 -.145E+02 -.796E+03   -.850E+01 0.138E+02 0.796E+03   -.365E+00 0.631E+00 -.260E+00   0.107E-01 -.405E-02 0.175E-01
   0.775E+00 0.241E-02 0.261E+04   -.867E+00 -.166E-02 -.261E+04   0.456E-02 0.732E-05 -.115E+01   0.107E-01 -.775E-03 -.133E-01
   -.444E+01 0.455E-02 0.916E+03   0.455E+01 -.298E-02 -.916E+03   -.406E-01 -.152E-03 -.480E+00   0.343E-02 -.153E-02 -.114E-01
   -.723E+00 0.581E-02 -.789E+03   0.657E+00 -.481E-02 0.788E+03   0.519E-01 -.113E-04 0.530E+00   0.131E-01 -.104E-02 0.121E-01
   0.163E+02 -.182E+02 -.254E+04   -.169E+02 0.182E+02 0.254E+04   0.557E+00 0.466E-01 0.888E+00   -.277E-02 -.496E-02 0.197E-01
   -.371E+01 -.340E-01 -.253E+04   0.353E+01 0.342E-01 0.253E+04   0.180E+00 0.177E-02 0.933E+00   0.855E-02 -.607E-03 0.186E-01
   0.113E+01 -.299E+00 0.261E+04   -.106E+01 0.279E+00 -.261E+04   -.495E-01 0.123E-01 -.113E+01   0.302E-02 0.105E-02 -.672E-02
   -.740E+00 0.181E+00 0.922E+03   0.798E+00 -.152E+00 -.922E+03   0.105E-01 -.122E-01 -.633E+00   -.166E-01 0.735E-03 -.934E-02
   -.496E+01 0.498E+01 -.791E+03   0.488E+01 -.493E+01 0.790E+03   0.937E-01 -.548E-01 0.609E+00   -.108E-01 0.412E-02 0.129E-01
   0.858E+00 -.320E+00 0.261E+04   -.793E+00 0.358E+00 -.261E+04   -.353E-01 -.194E-01 -.119E+01   -.125E-01 -.239E-03 -.938E-02
   0.794E+00 -.255E+01 0.921E+03   -.766E+00 0.261E+01 -.920E+03   -.702E-01 0.183E-01 -.400E+00   -.607E-02 0.471E-02 -.556E-02
   0.282E+01 0.672E+01 -.785E+03   -.276E+01 -.665E+01 0.784E+03   -.522E-01 -.701E-01 0.688E+00   -.100E-01 0.529E-02 0.174E-01
   -.175E+02 0.333E+02 -.251E+04   0.181E+02 -.338E+02 0.250E+04   -.558E+00 0.569E+00 0.143E+01   0.286E-02 0.301E-02 0.110E-01
   -.122E+02 0.217E+02 -.254E+04   0.125E+02 -.220E+02 0.254E+04   -.299E+00 0.247E+00 0.936E+00   -.794E-02 0.481E-02 0.150E-01
   0.939E+00 -.364E+00 0.261E+04   -.864E+00 0.351E+00 -.261E+04   -.611E-01 0.452E-02 -.113E+01   0.119E-02 0.197E-02 -.335E-02
   0.389E+01 0.224E+00 0.921E+03   -.395E+01 -.187E+00 -.921E+03   0.189E-01 -.260E-01 -.546E+00   -.170E-01 0.279E-02 -.460E-02
   -.130E+02 0.463E+01 -.798E+03   0.123E+02 -.460E+01 0.799E+03   0.744E+00 -.364E-01 -.195E+00   -.106E-01 0.459E-02 0.147E-01
   0.117E+01 -.222E-02 0.261E+04   -.108E+01 0.118E-02 -.261E+04   -.469E-01 -.197E-04 -.117E+01   -.138E-01 0.105E-02 -.775E-02
   0.139E+01 -.689E-02 0.917E+03   -.132E+01 0.583E-02 -.917E+03   -.119E+00 -.118E-03 -.203E+00   -.812E-02 0.122E-02 -.335E-02
   0.366E+01 0.892E-02 -.775E+03   -.369E+01 -.103E-01 0.774E+03   0.446E-01 -.536E-03 0.678E+00   -.828E-02 0.147E-02 0.178E-01
   -.112E+03 0.265E+02 -.244E+04   0.114E+03 -.267E+02 0.244E+04   -.241E+01 0.250E+00 0.680E+00   0.982E-03 0.394E-02 0.617E-02
   -.270E+02 -.118E-01 -.253E+04   0.272E+02 0.105E-01 0.253E+04   -.199E+00 0.635E-03 0.919E+00   -.776E-02 0.708E-03 0.110E-01
   0.940E+00 0.361E+00 0.261E+04   -.865E+00 -.349E+00 -.261E+04   -.611E-01 -.456E-02 -.113E+01   0.141E-02 -.926E-03 -.287E-02
   0.389E+01 -.230E+00 0.921E+03   -.395E+01 0.191E+00 -.921E+03   0.187E-01 0.259E-01 -.546E+00   -.168E-01 -.304E-03 -.428E-02
   -.130E+02 -.465E+01 -.798E+03   0.122E+02 0.461E+01 0.799E+03   0.743E+00 0.388E-01 -.196E+00   -.932E-02 -.250E-02 0.140E-01
   0.858E+00 0.321E+00 0.261E+04   -.793E+00 -.358E+00 -.261E+04   -.354E-01 0.193E-01 -.119E+01   -.121E-01 0.252E-03 -.826E-02
   0.799E+00 0.257E+01 0.921E+03   -.772E+00 -.262E+01 -.920E+03   -.701E-01 -.185E-01 -.400E+00   -.527E-02 -.461E-02 -.522E-02
   0.281E+01 -.673E+01 -.785E+03   -.274E+01 0.666E+01 0.784E+03   -.511E-01 0.703E-01 0.687E+00   -.957E-02 -.576E-02 0.168E-01
   -.112E+03 -.265E+02 -.244E+04   0.114E+03 0.267E+02 0.244E+04   -.241E+01 -.250E+00 0.680E+00   0.134E-02 -.296E-02 0.595E-02
   -.122E+02 -.217E+02 -.254E+04   0.125E+02 0.220E+02 0.254E+04   -.297E+00 -.247E+00 0.936E+00   -.759E-02 -.486E-02 0.138E-01
   0.114E+01 0.302E+00 0.261E+04   -.106E+01 -.282E+00 -.261E+04   -.495E-01 -.123E-01 -.113E+01   0.322E-02 -.209E-02 -.620E-02
   -.745E+00 -.169E+00 0.922E+03   0.803E+00 0.142E+00 -.922E+03   0.105E-01 0.117E-01 -.633E+00   -.164E-01 -.323E-02 -.895E-02
   -.496E+01 -.496E+01 -.791E+03   0.487E+01 0.492E+01 0.790E+03   0.938E-01 0.538E-01 0.610E+00   -.100E-01 -.620E-02 0.126E-01
   0.587E+00 0.183E-02 0.261E+04   -.539E+00 -.712E-03 -.261E+04   -.407E-01 -.222E-04 -.118E+01   -.107E-01 -.107E-02 -.102E-01
   0.118E+01 -.230E-02 0.922E+03   -.119E+01 0.356E-02 -.922E+03   -.428E-01 0.205E-03 -.561E+00   -.297E-02 -.131E-02 -.788E-02
   0.128E+01 -.535E-02 -.793E+03   -.107E+01 0.675E-02 0.792E+03   -.203E+00 0.197E-02 0.719E+00   -.143E-01 -.172E-02 0.153E-01
   -.175E+02 -.333E+02 -.251E+04   0.181E+02 0.338E+02 0.250E+04   -.557E+00 -.569E+00 0.143E+01   0.322E-02 -.378E-02 0.106E-01
   0.219E+01 0.144E-01 -.254E+04   -.181E+01 -.140E-01 0.254E+04   -.368E+00 -.378E-03 0.897E+00   -.906E-02 -.448E-03 0.164E-01
   -.101E+02 0.457E+02 -.188E+04   0.113E+02 -.454E+02 0.191E+04   -.121E+01 -.270E+00 -.298E+02   0.414E-02 0.405E-05 0.155E-02
   -.101E+02 -.457E+02 -.188E+04   0.113E+02 0.454E+02 0.191E+04   -.121E+01 0.272E+00 -.298E+02   0.387E-02 0.350E-03 0.113E-02
 -----------------------------------------------------------------------------------------------
   0.166E+01 -.229E-02 0.637E+02   0.215E-11 -.185E-12 -.114E-11   -.164E+01 0.439E-02 -.638E+02   0.238E-01 0.968E-03 0.180E+00
 
 
 POSITION                                       TOTAL-FORCE (eV/Angst)
 -----------------------------------------------------------------------------------
      0.00000      0.00000      0.00000        -0.054379      0.007872     -0.106229
      3.23926      0.00000      2.29051        -0.020497      0.033861     -0.022919
      1.63279      0.02418      4.55440        -0.001355     -0.001332      0.000914
      2.42945      1.37459      0.00000        -0.026469     -0.026840      0.000050
      0.80982      1.37459      2.29051         0.079619      0.011329      0.097895
      4.04497      1.38665      4.54646         0.001608      0.000256     -0.000806
      9.68438     10.98433      6.82885         0.003014     -0.000250      0.001017
      2.36580      1.25675      6.86212         0.000106     -0.000666      0.000168
      0.00000      2.74918      0.00000         0.032576     -0.009566     -0.075621
      3.23926      2.74918      2.29051        -0.020045      0.069280      0.154268
      1.63313      2.77182      4.57319         0.002580     -0.002414     -0.001828
      2.42945      4.12377      0.00000        -0.008271     -0.000056     -0.010267
      0.80982      4.12377      2.29051         0.038238      0.000255      0.012476
      4.03854      4.12379      4.58396         0.004481      0.000238     -0.007073
      9.66184      2.73231      6.80575         0.000383      0.001500     -0.002528
      2.28874      4.12377      6.95778         0.001935     -0.000646     -0.017124
      0.00000      5.49836      0.00000         0.032667      0.009469     -0.075443
      3.23926      5.49836      2.29051        -0.020211     -0.069114      0.154826
      1.63312      5.47581      4.57336         0.002622      0.001881     -0.002562
      2.42945      6.87295      0.00000        -0.026375      0.026755      0.000002
      0.80982      6.87295      2.29051         0.079294     -0.011724      0.098335
      4.04500      6.86096      4.54652         0.001470     -0.000723     -0.000958
      9.66175      5.51505      6.80583         0.000165     -0.001395     -0.002421
      2.36580      6.99082      6.86229        -0.000055     -0.000411     -0.000789
      0.00000      8.24754      0.00000        -0.054397     -0.007938     -0.106277
      3.23926      8.24754      2.29051        -0.020566     -0.034068     -0.022675
      1.63268      8.22320      4.55440        -0.000859      0.001651      0.001152
      2.42945      9.62213      0.00000        -0.071571     -0.000063      0.021445
      0.80982      9.62213      2.29051         0.059740     -0.000172      0.137002
      4.04403      9.62214      4.52273         0.001412     -0.000103     -0.000823
      9.68440      8.25973      6.82897         0.002195     -0.000037      0.000821
      2.41136      9.62208      6.82999        -0.002769      0.001330     -0.000576
      4.85890      0.00000      0.00000         0.029712     -0.006702     -0.011787
      8.09816      0.00000      2.29051         0.051858      0.021332     -0.067898
      6.48477      0.00071      4.51698         0.001783      0.000644      0.000946
      7.28834      1.37459      0.00000         0.022045      0.017655     -0.014998
      5.66871      1.37459      2.29051        -0.047841      0.077912     -0.000300
      8.91013      1.37926      4.51737         0.001049     -0.001761     -0.000050
      4.89359     10.97030      6.79206         0.001600     -0.000876     -0.002976
      7.31960      1.34316      6.83180         0.001348     -0.000029      0.003132
      4.85890      2.74918      0.00000         0.020393     -0.006842     -0.001653
      8.09816      2.74918      2.29051        -0.048504      0.017116     -0.004624
      6.45429      2.74928      4.56250         0.000291     -0.000120      0.003284
      7.28834      4.12377      0.00000         0.037366     -0.000055      0.004933
      5.66871      4.12377      2.29051        -0.056046      0.000004      0.109343
      8.89333      4.12376      4.51490         0.000725     -0.000449     -0.003139
      4.99787      2.72863      6.88247        -0.000716      0.000241     -0.000829
      7.33328      4.12366      6.83560        -0.000203      0.000018     -0.000234
      4.85890      5.49836      0.00000         0.020454      0.006803     -0.001674
      8.09816      5.49836      2.29051        -0.048572     -0.017255     -0.004664
      6.45430      5.49816      4.56254        -0.000595      0.002080      0.002101
      7.28834      6.87295      0.00000         0.022056     -0.017679     -0.014948
      5.66871      6.87295      2.29051        -0.047887     -0.078221     -0.000154
      8.90997      6.86816      4.51745         0.001481      0.001843     -0.000243
      4.99788      5.51888      6.88254        -0.001258     -0.000660     -0.000710
      7.31943      6.90431      6.83173         0.001999     -0.000078      0.003393
      4.85890      8.24754      0.00000         0.029669      0.006560     -0.011914
      8.09816      8.24754      2.29051         0.052011     -0.021708     -0.068032
      6.48472      8.24690      4.51692         0.001460     -0.001186      0.001667
      7.28834      9.62213      0.00000         0.000765     -0.000023     -0.035216
      5.66871      9.62213      2.29051        -0.059317      0.000102     -0.099027
      8.93156      9.62203      4.51576        -0.001338      0.001606     -0.001732
      4.89348      8.27400      6.79217         0.002318      0.001603     -0.004777
      7.30951      9.62210      6.81599        -0.000383     -0.000436      0.001026
      3.29904      2.64348      8.01017        -0.002493      0.003354     -0.001032
      3.29895      5.60397      8.01019        -0.001515     -0.002954     -0.000669
 -----------------------------------------------------------------------------------
    total drift:                                0.044957      0.003073      0.039744


--------------------------------------------------------------------------------------------------------



  FREE ENERGIE OF THE ION-ELECTRON SYSTEM (eV)
  ---------------------------------------------------
  free  energy   TOTEN  =      -419.17226784 eV

  energy  without entropy=     -418.58070700  energy(sigma->0) =     -418.87648742
 
 d Force = 0.3202487E-04[ 0.277E-04, 0.364E-04]  d Energy = 0.2937650E-04 0.265E-05
 d Force = 0.1907344E+01[ 0.191E+01, 0.191E+01]  d Ewald  = 0.1907344E+01 0.838E-08


--------------------------------------------------------------------------------------------------------


    POTLOK:  cpu time    0.0665: real time    0.0666


--------------------------------------------------------------------------------------------------------


 stress matrix after NEB project (eV)
    -72.18348      0.00133     -0.05384
      0.00133    -53.25740      0.00284
     -0.05384      0.00284      0.19472
  FORCES: max atom, RMS     0.017245    0.003081
  FORCE total and by dimension    0.025029    0.017124
  Stress total and by dimension   89.704230   72.183481
 Quasi-Newton relaxation of ions (Broydens 2nd method)
  g(Force)  = 0.121E-04   g(Stress)= 0.000E+00

 retain information from N=  5 steps
 eigenvalues of (default step * inverse Hessian matrix)
  average eigenvalue of G=   4.9654
 eigenvalue spectrum of G is  7.1164  7.1164  3.5292  3.5292  3.5355


--------------------------------------------------------------------------------------------------------


  
 reached required accuracy - stopping structural energy minimisation
     LOOP+:  cpu time   37.1407: real time   37.3951
    4ORBIT:  cpu time    0.0000: real time    0.0000

 total amount of memory used by VASP MPI-rank0    74719. kBytes
=======================================================================

   base      :      30000. kBytes
   nonlr-proj:       5528. kBytes
   fftplans  :       3935. kBytes
   grid      :       6141. kBytes
   one-center:        139. kBytes
   wavefun   :      28976. kBytes
 
  
  
 General timing and accounting informations for this job:
 ========================================================
  
                  Total CPU time used (sec):     1489.801
                            User time (sec):     1289.351
                          System time (sec):      200.450
                         Elapsed time (sec):     1496.730
  
                   Maximum memory used (kb):      935828.
                   Average memory used (kb):           0.
  
                          Minor page faults:       308232
                          Major page faults:            0
                 Voluntary context switches:    101066627
