ITEM: TIMESTEP
0
ITEM: NUMBER OF ATOMS
3074
ITEM: BOX BOUNDS pp pp pp
0.0000000000000000e+00 3.8693948398131120e+01
0.0000000000000000e+00 4.4679925159782847e+01
0.0000000000000000e+00 6.0000000000000000e+01
ITEM: ATOMS id type x y z c_peratom[1] c_peratom[2] c_peratom[3] c_peratom[4] c_peratom[5] c_peratom[6]
1 2 0 0 0 -196895 -196962 48887.1 -2.16805 -57.4783 -10.576
2 2 3.22448 0 2.28145 37496.9 37237.2 -48095.5 -22.1808 -146.946 -24.2172
3 2 1.61221 0 4.56002 39704.2 39308 -2349.33 -27.7188 -386.218 -24.2418
4 2 2.41837 1.39625 0 -196895 -196993 48832.8 -8.81836 -115.359 -16.5646
5 2 0.806103 1.39624 2.28146 37312.2 37150.8 -48123 -30.4595 -173.203 -27.7046
6 2 4.03059 1.39623 4.56002 39688.8 39339.1 -2211.68 -130.746 -60.4471 -263.918
7 2 38.6939 0 6.83856 39492.7 39401 -390.527 -25.1163 -142.704 -8.23027
8 2 3.22442 0 9.11706 39881.3 39285.1 -272.068 -88.0063 -54.0444 -47.6107
9 2 1.61215 0 11.3956 39429.8 38872.2 -994.628 -90.8709 -237.733 -94.9297
10 2 2.41832 1.39623 6.8385 39745.4 39287.5 -229.595 -122.591 -252.043 -62.9947
11 2 0.806049 1.39623 9.11706 39345 38937.9 -645.097 -117.291 -499.894 -86.1853
12 2 4.03052 1.3962 11.3956 39773 38559.6 -1022.32 -254.303 -404.91 -214.374
13 2 38.6938 0 13.6741 39702.1 39194.7 47.4794 -134.573 -192.813 -89.4828
14 2 3.22438 44.6799 15.9526 39772.3 38078.5 -165.24 -131.703 -315.706 -102.483
15 2 1.61212 44.6799 18.2311 39729.3 38150.2 -142.972 -137.857 -222.842 -118.57
16 2 2.41826 1.39619 13.6741 39453.9 38540.4 -153.628 -324.987 -305.52 -260.788
17 2 0.805991 1.39619 15.9526 39622 38419 -115.942 -338.762 -627.788 -68.7925
18 2 4.03052 1.39615 18.2311 40376 37894.7 -59.0949 -402.34 -325.381 -173.208
19 2 38.6938 44.6799 20.5097 40150.1 38275.9 -1495.55 -108.049 -520.454 119.728
20 2 3.22445 44.6799 22.7882 38469.2 35951.3 -47500.7 -82.6667 -207.731 -33.146
21 2 1.61221 44.6799 25.0697 -195758 -198028 49612.1 -79.1927 -37.5867 -50.0209
22 2 2.41826 1.39616 20.5097 40175.5 38076.2 -1467.77 -483.477 -238.599 -158.995
23 2 0.806018 1.39617 22.7882 38134.8 36213.7 -47471.6 -421.284 -120.015 -138.072
24 2 4.03063 1.39616 25.0697 -195730 -198242 49304.8 -82.5 85.5202 8.52233
25 2 0 2.7925 0 -196878 -196963 48920.8 -9.53785 -81.7755 -30.0663
26 2 3.22448 2.79249 2.28145 37491.3 37308.5 -48147.3 -71.6357 -159.445 -116.369
27 2 1.61221 2.79248 4.56002 39736.6 39448 -2274.03 -98.5852 -390.809 -78.1143
28 2 2.41837 4.18874 0 -196886 -196975 48893.3 -7.68562 -88.3638 -18.3186
29 2 0.806103 4.18873 2.28146 37399 37357.9 -47988.9 -22.5218 -118.639 -2.9776
30 2 4.03059 4.18871 4.56001 39819.8 39290.4 -2355.89 -164.081 -131.797 -159.097
31 2 38.6939 2.79248 6.83856 39518.1 39544.9 -397.445 -125.016 -139.027 -68.7667
32 2 3.22442 2.79245 9.11706 40040.6 39297.3 110.927 -202.439 -290.94 -177.523
33 2 1.61215 2.79245 11.3956 39415.8 38856.5 -635.41 -127.064 -476.709 -227.148
34 2 2.41832 4.18871 6.8385 40019.6 39498.1 4.02077 -173.163 -169.923 -125.694
35 2 0.806057 4.18871 9.11706 39609.6 39192.1 -496.357 -191.768 -276.818 -171.737
36 2 4.03052 4.18865 11.3956 39635.2 38543.7 -932.681 -563.846 -350.488 -369.882
37 2 38.6938 2.79245 13.6741 39442.3 39085.8 9.68263 -194.712 -197.018 -195.864
38 2 3.22436 2.79238 15.9526 39702.1 38273.4 -116.733 -583.16 -331.27 -370.362
39 2 1.6121 2.79238 18.2311 39531.2 38240 -133.489 -629.749 -281.324 -331.141
40 2 2.41825 4.18864 13.6741 39612.2 38674.9 -295.582 -671.136 -346.793 -653.866
41 2 0.805983 4.18864 15.9526 39578.7 38460.7 -387.082 -699.197 -665.319 -456.408
42 2 4.03048 4.18854 18.2311 40047.3 37983.1 42.1055 -1031.03 -622.894 -932.075
43 2 38.6938 2.7924 20.5097 39800.9 38082.9 -1834.69 -575.657 -704.879 -270.429
44 2 3.22442 2.79235 22.7882 38328.6 35617.2 -47580.8 -451.89 -162.284 -75.7739
45 2 1.61219 2.79238 25.0697 -195887 -198234 49591.9 -219.55 -29.0108 -75.97
46 2 2.41822 4.18856 20.5097 39701.3 37938.2 -1626.49 -1017.85 -212.404 -379.176
47 2 0.805987 4.18859 22.7882 37652.3 36113.9 -47769.5 -693.948 -70.5072 -264.127
48 2 4.03063 4.18856 25.0697 -195791 -198672 49571.5 -271.392 -37.9747 12.4206
49 2 0 5.58499 0 -196868 -196933 49008.6 3.60618 -48.798 5.78489
50 2 3.22448 5.58499 2.28145 37461 37391.4 -48138.4 -175.259 -183.085 -147.387
51 2 1.61221 5.58499 4.56002 39837.8 39270.1 -1945.52 -117.461 -233.925 108.329
52 2 2.41837 6.98124 0 -196880 -196983 48888 -1.88534 -109.961 6.70961
53 2 0.806107 6.98124 2.28146 37387 37348.8 -48107.1 -18.5711 -196.464 -86.3811
54 2 4.03059 6.98119 4.56001 39720.2 39335.5 -2212.99 -168.471 -406.279 -284.918
55 2 38.6939 5.58499 6.83856 39605.9 39750.5 -346.598 -162.972 -116.024 -111.197
56 2 3.22443 5.58495 9.11706 39948.8 39115.5 -279.142 -183.857 -362.917 -84.2877
57 2 1.61216 5.58495 11.3956 39102.5 38768 -616.673 -455.568 -481.192 -308.1
58 2 2.41833 6.98119 6.83856 39687.6 39409 -435.655 -352.894 -239.897 -159.517
59 2 0.806072 6.98119 9.11706 39275 39158.5 -649.076 -157.86 -355.68 -277.947
60 2 4.03052 6.9811 11.3956 39395.2 38708.1 -904.433 -418.608 -612.169 -628.657
61 2 38.6938 5.58495 13.6741 39380.8 39362.3 -380.529 -474.884 -340.753 -127.052
62 2 3.22435 5.58481 15.9526 39288.4 38214.3 -391.973 -909.592 -440.628 -727.377
63 2 1.61208 5.58481 18.2311 39362.6 38170.7 -70.8849 -979.826 -679.713 -725.779
64 2 2.41826 6.9811 13.6741 39579.5 38903.3 -864.526 -656.891 -456.315 -488.847
65 2 0.805991 6.9811 15.9526 39459.3 38834.5 -360.899 -724.294 -654.32 -593.313
66 2 4.03044 6.98097 18.2311 39165.1 37667 -601.091 -1075.91 -364.705 -861.75
67 2 38.6938 5.58481 20.5097 39399 38001.6 -2003.77 -937.967 -654.489 -402.271
68 2 3.22438 5.58472 22.7882 38037.1 35139.5 -47463.2 -1073.87 -242.496 -712.611
69 2 1.61217 5.58477 25.0697 -196253 -198500 49594.8 -955.585 54.2988 -228.944
70 2 2.41819 6.98097 20.5096 39497.9 37827.5 -1439.86 -913.543 -436.663 -647.973
71 2 0.805956 6.98101 22.7882 37214.5 35814.3 -47317.4 -1086.31 -244.331 -332.339
72 2 4.03056 6.98093 25.0697 -196586 -199541 48773.8 -641.02 -309.075 -24.956
73 2 0 8.37749 0 -196849 -196921 49068.5 3.13315 -66.5342 9.63747
74 2 3.22448 8.37749 2.28145 37448.7 37302.4 -48150.3 -260.24 -154.033 -194.092
75 2 1.61222 8.37744 4.56002 39906.7 39284.8 -1576.16 -267.835 -110.811 -149.076
76 2 2.41837 9.77373 0 -196889 -196969 48884.6 -0.886342 -80.9574 12.3489
77 2 0.806115 9.77373 2.28146 37497 37369.1 -47889.3 -39.0051 -128.437 -162.707
78 2 4.03059 9.77369 4.56001 39760 39521 -2116.9 -94.4274 -301.633 -347.254
79 2 38.6939 8.37749 6.83856 39504.8 39618.7 -415.762 -30.364 -20.6579 -168.438
80 2 3.22444 8.3774 9.11706 39656.7 38873.8 -861.627 -305.365 -452.783 -521.885
81 2 1.61219 8.3774 11.3956 39542.7 39386.4 -501.783 -329.154 -292.692 -277.106
82 2 2.41834 9.77369 6.83856 39544.8 39502.6 -470.74 -390.582 -183.959 -316.586
83 2 0.806096 9.77369 9.11706 39563.3 39511 -345.862 -363.196 -143.434 -148.333
84 2 4.03056 9.7736 11.3955 39901.4 39399.2 -878.451 -390.382 -382.558 -381.253
85 2 38.6939 8.37744 13.6741 39526.7 39415.5 -375.036 -442.973 -275.342 -335.356
86 2 3.22436 8.37726 15.9526 39313.1 38597.1 -588.113 -642.939 -742.643 -654.661
87 2 1.61209 8.37726 18.2311 38865.7 38496.3 -614.05 -931.63 -680.471 -651.029
88 2 2.41831 9.7736 13.6741 39651.9 39395.2 -74.7295 -296.35 -432.891 -460.93
89 2 0.806045 9.7736 15.9526 39495.2 39738.1 -184.369 -478.351 -591.71 -508.085
90 2 4.03044 9.77338 18.2311 38996.3 37809.6 -630.835 -1150.33 -1112.55 -1014.93
91 2 38.6938 8.37726 20.5097 38875.9 38655.7 -1962.7 -935.552 -664.01 -469.203
92 2 3.22432 8.37708 22.7882 36545.2 34739 -47445.3 -1471.64 -473.007 -415.805
93 2 1.61214 8.37717 25.0697 -197507 -198796 49329.8 -896.153 93.472 -225.718
94 2 2.4182 9.77338 20.5096 38381.7 38075.7 -1846.74 -1286.8 -419.867 -1036.64
95 2 0.805968 9.77342 22.7882 36022.4 35014.6 -47260.9 -865.236 -408.158 -463.54
96 2 4.03048 9.77329 25.0697 -198440 -199276 49143.8 -1310.41 -134.449 -282.346
97 2 0 11.17 0 -196869 -196911 49036.2 -10.7004 -50.3816 -0.659266
98 2 3.22449 11.17 2.28145 37307.1 37244.6 -48249.3 -257.112 -104.772 -158.194
99 2 1.61224 11.1699 4.56002 39817.3 40157.4 -1932.89 -53.6991 -118.087 -348.088
100 2 2.41837 12.5662 0 -196914 -196957 48831.4 -9.81669 -34.0356 0.547033
101 2 0.806123 12.5662 2.28146 37259.3 37379.5 -47985.4 139.664 62.2268 -114.264
102 2 4.03063 12.5662 4.55999 39706.2 39537.8 -2630.35 -46.2297 -70.1517 -425.025
103 2 0 11.17 6.83856 39644.5 39689.9 -229.189 -146.339 0.558017 -111.804
104 2 3.22448 11.1699 9.117 39401.5 39782.8 -934.537 -91.0249 -239.333 -404.79
105 2 1.61223 11.1699 11.3956 39724.5 39952.2 -158.729 -272.909 -443.541 -156.464
106 2 2.41838 12.5662 6.8385 39598.3 39570 -220.125 -122.469 -152.15 -118.049
107 2 0.806138 12.5662 9.11706 40041 40197.5 -402.115 -152.745 -188.287 -424.077
108 2 4.03063 12.5661 11.3955 39721.8 39890.3 -415.984 -320.554 -357.317 -393.597
109 2 38.6939 11.1699 13.6741 39537.9 39515.3 -339.946 -255.936 -145.526 -642.833
110 2 3.22444 11.1698 15.9526 39342.3 39493.9 -656.776 -579.635 -665.165 -780.914
111 2 1.61218 11.1698 18.2311 38815 39064.6 -182.637 -491.571 -458.222 -1014.83
112 2 2.41839 12.5661 13.6741 39279.3 39905.8 -379.611 -250.928 -18.1504 -671.792
113 2 0.806161 12.5661 15.9526 39532.3 39973.6 -545.329 -39.4853 -104.501 -580.548
114 2 4.03056 12.5659 18.231 38080.6 39201.9 -986.618 -639.127 -875.201 -1145.99
115 2 38.6939 11.1698 20.5097 38870.9 38779.2 -2165.86 -342.749 -214.664 -641.695
116 2 3.2243 11.1695 22.7882 34428.5 35180 -47271.4 -1320.11 -496.321 -938.451
117 2 1.61212 11.1696 25.0697 -199643 -198833 49267.5 -881.137 -172.326 -30.0103
118 2 2.41832 12.5659 20.5096 37044.1 38673.9 -2068.64 -242.514 -667.385 -1057.79
119 2 0.806092 12.5658 22.7882 34267.2 35622.6 -47421 -97.153 -333.924 -820.246
120 2 4.03032 12.5657 25.0696 -201460 -198777 49288 -2510.37 -435.747 -170.791
121 2 0 13.9625 0 -196987 -196925 48756.6 -17.3642 81.1243 -8.90983
122 2 3.2245 13.9625 2.28145 37033.6 37171.6 -48536.1 -254.742 -14.8121 -223.344
123 2 1.61226 13.9625 4.56001 39632.4 40131.3 -2425.62 -299.535 99.6489 -110.472
124 2 2.41837 15.3587 0 -196978 -196966 48661.3 -17.4818 38.7687 -14.1337
125 2 0.806138 15.3587 2.28145 37088.1 37279.5 -48388 23.9988 44.2718 -23.1696
126 2 4.03063 15.3587 4.55998 39350.9 39852.5 -2955.04 -155.321 -76.9322 -73.4562
127 2 2.82679e-05 13.9625 6.8385 39712.8 39847.4 -373.761 -32.9399 237.886 -249.725
128 2 3.22453 13.9624 9.117 39597.1 40025 -751.753 75.0518 -27.9061 -261.273
129 2 1.61231 13.9624 11.3955 39631.4 39662.3 -476.959 -111.261 3.87218 -619.622
130 2 2.41842 15.3587 6.8385 39402 39994.6 -1021.3 98.8178 85.5149 -290.491
131 2 0.806204 15.3587 9.117 39628 40283.4 -798.194 170.361 326.327 -314.513
132 2 4.03071 15.3586 11.3954 39113.3 40231 -1174.13 267.585 33.3319 -471.542
133 2 9.72646e-05 13.9624 13.6741 39857.8 39868.7 -407.593 236.73 24.1629 -179.541
134 2 3.22459 13.9623 15.9525 38562.6 40016.8 -511.145 -39.4092 -89.7772 -832.969
135 2 1.61238 13.9623 18.2311 37773.7 39340.4 -856.451 603.787 91.507 -608.122
136 2 2.41854 15.3586 13.6739 38824.8 40380.2 -907.727 394.935 292.086 -531.479
137 2 0.80637 15.3586 15.9525 38193.3 39983.3 -985.352 516.878 716.171 -1050.27
138 2 4.03075 15.3585 18.2309 36933.9 39951.8 -618.471 246.146 -344.026 -1111.46
139 2 0.000178521 13.9622 20.5096 37348.1 39108.3 -1470.95 960.123 348.722 -1042.51
140 2 3.22436 13.962 22.7881 32187.2 36131.2 -47602 -804.583 -780.612 -817.647
141 2 1.61212 13.9621 25.0697 -202681 -198268 49264 -630.493 -255.439 -167.527
142 2 2.41855 15.3584 20.5095 35480.1 39598 -2183.86 475.419 -24.9498 -1236.42
143 2 0.80632 15.3584 22.7881 31611.5 36935.7 -47294 1030.47 8.33954 -758.539
144 2 4.03017 15.3583 25.0696 -205555 -198169 49412.6 -2420.81 -472.552 -364.411
145 2 0 16.755 0 -197048 -196940 48581.8 -15.735 114.615 -20.6688
146 2 3.22451 16.755 2.28143 37180.5 37287.2 -48773.8 33.7912 156.915 -110.299
147 2 1.61229 16.755 4.55998 39586.5 39769.6 -2738.07 76.9305 363.588 -230.235
148 2 2.41837 18.1512 0 -197059 -196984 48462.5 -15.9148 72.4273 -18.6517
149 2 0.80615 18.1512 2.28143 37048.4 37294.1 -48950.7 10.3433 250.586 -33.5667
150 2 4.03067 18.1512 4.55995 39231.9 39901.7 -3253.63 -1.14797 178.524 -298.834
151 2 7.25976e-05 16.755 6.83844 39773.6 39914.1 -998.237 103.706 371.723 -124.983
152 2 3.22461 16.7549 9.11694 39159.6 39993.1 -1221.38 -77.795 285.717 -309.215
153 2 1.61243 16.7549 11.3954 38760.5 40041.5 -1744.15 326.114 666.095 -241.353
154 2 2.41847 18.1512 6.83844 39351.1 40061.5 -1426.77 -90.157 257.567 -237.3
155 2 0.806277 18.1512 9.11694 39310 39914.9 -1324.16 309.55 703.031 -31.6419
156 2 4.03083 18.1512 11.3954 38567.2 40383.7 -1465.34 62.8018 768.193 -440.203
157 2 0.000272864 16.7549 13.6739 38949.2 40501 -1799.69 567.651 1222.38 -629.974
158 2 3.22479 16.7548 15.9524 37200.9 40285.2 -1560.71 346.754 804.555 -633.823
159 2 1.61266 16.7548 18.2309 35683.6 40511.2 -1064.3 943.886 1106.91 -887.94
160 2 2.4187 18.1512 13.6739 37874.5 40373.6 -1866.71 355.224 1208.16 -225.945
161 2 0.806618 18.1512 15.9523 36785.5 40665.5 -1290.41 962.625 2107.86 -288.74
162 2 4.03094 18.151 18.2308 35592.4 40736 -753.065 340.176 517.044 -599.675
163 2 0.000544691 16.7547 20.5094 33984.7 40079.1 -1989.74 1983.89 1246.93 -860.849
164 2 3.22447 16.7546 22.788 30436.9 37452.3 -47683.8 -109.024 -674.598 -854.301
165 2 1.61214 16.7547 25.0696 -205258 -197504 49502.6 -362.719 -406.309 -351.405
166 2 2.41878 18.151 20.5094 33540.1 40468.2 -2228.7 781.416 568.619 -391.515
167 2 0.806544 18.151 22.7879 29049.6 37732.7 -47862.2 1036.38 454.833 -507.85
168 2 4.03005 18.151 25.0695 -208167 -197055 49804.2 -1617.78 -823.82 -166.578
169 2 0 19.5475 0 -197094 -196971 48419 -14.0056 123.712 -29.7082
170 2 3.22453 19.5475 2.28142 36973 37184.1 -49291.6 9.50898 201.16 -31.0738
171 2 1.61231 19.5475 4.55996 39379.2 39638 -3024.88 -10.8556 298.304 7.89433
172 2 2.41837 20.9437 0 -197112 -197000 48321.1 -0.303705 127.682 0.688722
173 2 0.806157 20.9437 2.28142 37072.4 37302.5 -49131.6 -0.282295 288.38 0.00562817
174 2 4.03067 20.9437 4.55994 39120.6 39276.4 -3718.75 0.366501 36.9162 0.0808907
175 2 0.000112 19.5475 6.83844 39115 39786.7 -1960.13 112.069 818.52 -178.978
176 2 3.22466 19.5475 9.11688 38720.4 39815.9 -1924.66 84.4313 440.303 -185.649
177 2 1.61252 19.5475 11.3954 38405.9 40192.9 -2236.62 6.67214 1235.65 -293.582
178 2 2.41849 20.9437 6.83844 38649.8 39337.4 -2149.72 0.844972 449.82 0.627594
179 2 0.806316 20.9437 9.11688 38584.5 39670.3 -2456.15 -0.2072 1113 0.43403
180 2 4.03086 20.9437 11.3953 38072.3 40241.2 -1716.46 -0.0944392 796.625 0.0464692
181 2 0.00043237 19.5475 13.6738 37706.5 40549.5 -2765.76 364.403 2267.55 -410.962
182 2 3.22494 19.5474 15.9523 35866.5 40542.5 -1692.72 375.058 1337.95 -227.01
183 2 1.61287 19.5474 18.2308 34014.5 41159.5 -1512.35 605.328 1920.98 -314.603
184 2 2.41877 20.9437 13.6738 36927.6 40156 -2227.84 1.67646 1329.98 0.0447201
185 2 0.80673 20.9437 15.9523 35339.7 40460.5 -1832.07 35.8044 2759.21 101.105
186 2 4.03102 20.9437 18.2308 34451.7 41394 -1064.65 15.4086 867.937 0.00146593
187 2 0.000826623 19.5474 20.5093 30575.3 40607.9 -3040.15 851.227 2493.68 -357.614
188 2 3.22456 19.5473 22.7879 29494.1 38301.7 -47747.6 94.4648 -526.107 -490.341
189 2 1.61216 19.5473 25.0694 -207141 -196408 49244.1 -42.3283 -367.591 -129.828
190 2 2.41887 20.9437 20.5093 32553.3 40577.1 -2760.03 -30.467 898.447 -90.7865
191 2 0.806641 20.9437 22.7879 28051.8 38277.2 -48155.1 0.370401 717.526 0.524557
192 2 4.03001 20.9437 25.0694 -209000 -196628 49274.4 -0.0543308 -929.634 0.013967
193 2 0 22.34 0 -197093 -196968 48427 15.6068 126.281 34.5582
194 2 3.22453 22.34 2.28142 36946.7 37175.1 -49291.5 5.92347 201.264 31.1227
195 2 1.61231 22.34 4.55996 39377.9 39635.1 -3034.01 12.4399 296.552 -2.81523
196 2 2.41837 23.7362 0 -197067 -196984 48446.7 15.9158 83.4352 18.6537
197 2 0.806154 23.7362 2.28143 37048.5 37294 -48950.7 -10.3178 250.468 33.5569
198 2 4.03067 23.7362 4.55995 39258.6 39902.5 -3244.17 0.852745 193.921 299.543
199 2 0.000112283 22.34 6.83844 39113.4 39789.7 -1952.9 -110.575 819.637 183.907
200 2 3.22466 22.34 9.11688 38693.5 39807.7 -1923.93 -69.9017 440.269 186.393
201 2 1.61252 22.34 11.3954 38404.8 40189.2 -2246.91 -6.05507 1234.35 299.523
202 2 2.41847 23.7362 6.83844 39337.2 40062.1 -1434.73 93.3699 270.991 242.212
203 2 0.806281 23.7362 9.11694 39337.6 39925.3 -1318.42 -292.89 704.83 37.8406
204 2 4.03083 23.7363 11.3954 38541.5 40371.8 -1472.62 -45.8038 767.363 445.092
205 2 0.000432792 22.34 13.6738 37706.9 40548.7 -2765.88 -365.048 2263.94 413.678
206 2 3.22494 22.34 15.9523 35865 40555.2 -1697.11 -362.965 1341.52 215.246
207 2 1.61288 22.3401 18.2308 34013.9 40687.9 -1514.03 -605.838 1922.16 314.836
208 2 2.4187 23.7363 13.6739 37863.3 40366.8 -1874.14 -350.866 1205.82 230.809
209 2 0.806618 23.7363 15.9523 36743.2 40613.4 -1445.23 -928.668 2041.25 384.797
210 2 4.03094 23.7364 18.2308 35181.4 40605.7 -752.977 -340.188 517.117 599.728
211 2 0.000827013 22.3401 20.5093 30768.4 40678.1 -3012.77 -962.9 2474.63 373.717
212 2 3.22456 22.3401 22.7879 29494.2 38301 -47747.5 -94.6176 -526.099 489.566
213 2 1.61216 22.3401 25.0694 -207141 -196409 49244.1 41.7024 -367.613 129.822
214 2 2.41878 23.7364 20.5094 33509.3 40402.5 -2404.96 -812.784 506.52 296.152
215 2 0.806544 23.7364 22.7879 29049.1 37731.1 -47865 -1039.25 453.169 506.485
216 2 4.03005 23.7365 25.0695 -208169 -196585 49804.3 1617.96 -823.716 166.625
217 2 0 25.1325 0 -197047 -196937 48589.7 14.1478 117.21 15.8093
218 2 3.22451 25.1325 2.28143 37154.2 37278.3 -48773.6 -49.2251 157.03 110.263
219 2 1.61229 25.1325 4.55998 39585.2 39769.9 -2741.03 -77.0179 365.713 230.349
220 2 2.41837 26.5287 0 -196978 -196965 48661.8 17.7896 38.5238 13.4466
221 2 0.806138 26.5287 2.28145 37088.1 37279.5 -48388 -23.7305 44.2845 23.1776
222 2 4.03063 26.5288 4.55998 39343.6 39853 -2971.05 154.895 -65.6639 73.4109
223 2 7.33502e-05 25.1325 6.83844 39799.5 39926.1 -991.144 -90.2252 372.476 120.173
224 2 3.22461 25.1325 9.11694 39124.3 39981.1 -1245.12 63.9555 294.634 314.064
225 2 1.61243 25.1325 11.3954 38765.9 40038 -1741.15 -327.878 655.584 237.135
226 2 2.41842 26.5288 6.8385 39392.1 39998.3 -1004.1 -97.9655 90.136 290.427
227 2 0.806204 26.5287 9.117 39690.1 40303 -777.614 -171.839 316.576 309.817
228 2 4.03071 26.5288 11.3954 39085 40215.1 -1190.58 -283.179 28.1861 471.07
229 2 0.000273969 25.1325 13.6739 38957.4 40500.5 -1783.46 -567.714 1207.47 627.2
230 2 3.22479 25.1326 15.9524 37199.6 40299 -1563.72 -337.959 807.882 621.545
231 2 1.61266 25.1326 18.2309 35682.2 40039.6 -1068.53 -943.944 1109.38 888.565
232 2 2.41854 26.5288 13.6739 38800.9 40358.1 -926.89 -387.321 297.533 514.436
233 2 0.80637 26.5288 15.9525 38194.3 40459.9 -974.077 -517.199 719.705 1050.09
234 2 4.03075 26.529 18.2309 36881.5 39935.1 -618.684 -245.991 -344.216 1111.64
235 2 0.000545705 25.1327 20.5094 33818.4 40033.3 -1963.59 -2093.71 1228.05 873.059
236 2 3.22447 25.1328 22.788 30451.5 37495.6 -47536.1 150.746 -610.644 936.704
237 2 1.61214 25.1328 25.0696 -205078 -196976 49502.6 463.027 -406.271 351.423
238 2 2.41855 26.529 20.5095 35463.4 39587.6 -2200.49 -474.316 -30.2306 1237.25
239 2 0.80632 26.5291 22.7881 31631.6 36990.4 -47139.7 -994.273 62.2373 855.19
240 2 4.03017 26.5292 25.0696 -205376 -197641 49412.5 2407.22 -472.585 527.92
241 2 0 27.925 0 -196987 -196925 48756.6 17.3511 81.1327 8.92039
242 2 3.2245 27.925 2.28145 37033.6 37171.8 -48535.9 254.719 -14.8629 223.418
243 2 1.61226 27.925 4.56001 39631.4 40135.2 -2421.62 298.121 105.042 105.589
244 2 2.41837 29.3212 0 -196914 -196957 48831.5 9.85476 -34.0219 -0.527457
245 2 0.806123 29.3212 2.28146 37259.4 37379.7 -47985 -139.544 62.403 114.578
246 2 4.03063 29.3212 4.55999 39711.9 39555.4 -2622.94 34.7444 -76.7695 437.787
247 2 2.92422e-05 27.925 6.8385 39738.8 39859.4 -366.663 19.4292 238.517 254.232
248 2 3.22454 27.925 9.117 39569.9 40012.5 -759.11 -61.0035 -30.5969 255.643
249 2 1.61231 27.925 11.3955 39635.1 39658.9 -475.668 113.168 -5.90114 623.95
250 2 2.41838 29.3212 6.8385 39584.6 39571.6 -227.802 116.761 -138.939 117.706
251 2 0.806142 29.3212 9.11706 40061 40186.3 -412.439 126.363 -181.614 434.462
252 2 4.03063 29.3213 11.3955 39736.4 39930.7 -274.478 343.882 -293.947 496.362
253 2 9.86568e-05 27.925 13.6741 39877.6 39924.9 -247.853 -202.648 81.3208 274.736
254 2 3.22459 27.9251 15.9525 38729.2 40061.8 -537.458 -69.8114 -70.3945 844.35
255 2 1.61238 27.9252 18.2311 37791.4 39398.4 -700.977 -637.356 151.643 512.477
256 2 2.41839 29.3213 13.6741 39440.3 39955.9 -379.668 352.526 -18.1146 669.195
257 2 0.806161 29.3213 15.9526 39532.1 39974.6 -542.876 37.7785 -103.42 575.424
258 2 4.03056 29.3216 18.231 38054.1 39191.7 -987.389 621.035 -875.152 1143.81
259 2 0.000179755 27.9252 20.5096 37356.1 39108.2 -1455.86 -959.153 337.877 1041.83
260 2 3.22436 27.9254 22.7881 32187.8 36131 -47601.7 873.377 -780.184 1005.01
261 2 1.61212 27.9254 25.0697 -202681 -198268 49263.9 920.628 -255.462 331.079
262 2 2.41832 29.3216 20.5096 37027.5 38664.7 -2076.07 239.531 -669.859 1052.88
263 2 0.806092 29.3216 22.7882 34241.5 35551 -47595.3 141.538 -383.246 904.183
264 2 4.03032 29.3217 25.0696 -201640 -199306 49288 2497.02 -435.986 334.386
265 2 0 30.7174 0 -196869 -196911 49036.2 10.7063 -50.3688 0.667605
266 2 3.22449 30.7174 2.28145 37307.1 37244.7 -48248.1 257.005 -104.718 158.836
267 2 1.61224 30.7175 4.56002 39773.2 40025.7 -2277.05 -22.4227 -241.165 134.79
268 2 2.41837 32.1137 0 -196886 -196969 48885.4 0.918558 -79.5344 -12.32
269 2 0.806115 32.1137 2.28146 37497.2 37369.2 -47888.1 38.9913 -127.945 162.702
270 2 4.03059 32.1137 4.56001 39601.2 39519.7 -2426.92 93.074 -79.5388 349.254
271 2 0 30.7174 6.83856 39646.1 39695.8 -213.184 146.458 9.1661 113.769
272 2 3.22448 30.7175 9.117 39571.8 39952.8 -590.467 116.138 -116.661 191.674
273 2 1.61223 30.7175 11.3956 39719.5 39944.8 -181.246 275.434 -445.01 157.849
274 2 2.41834 32.1137 6.8385 39537.1 39502.4 -486.694 392.836 -173.09 317.021
275 2 0.806099 32.1137 9.11706 39738.7 39508.6 -2.47495 362.75 -389.345 148.558
276 2 4.03056 32.1138 11.3955 39901.9 39397.8 -878.745 457.059 -381.705 575.594
277 2 38.6939 30.7175 13.6741 39517.5 39458.1 -500.434 289.883 -202.255 738.562
278 2 3.22444 30.7177 15.9526 39157.5 39424.5 -667.729 468.246 -657.176 794.35
279 2 1.61218 30.7177 18.2311 38792.1 39007.1 -347.272 457.433 -512.282 918.761
280 2 2.41831 32.1138 13.6741 39643.7 39402.7 -64.205 505.166 -441.099 449.217
281 2 0.806045 32.1138 15.9526 39494.3 39264.5 -188.878 478.093 -593.366 507.327
282 2 4.03044 32.1141 18.2311 39016.1 38338.2 -470.353 1184.01 -1055.34 1110.5
283 2 38.6939 30.7177 20.5097 38870 38777.8 -2166.61 342.787 -214.18 640.503
284 2 3.2243 30.7179 22.7882 34408.7 35123.9 -47429.7 1354.13 -551.555 1032.93
285 2 1.61212 30.7179 25.0697 -199643 -199305 49267.7 881.699 -172.683 29.7616
286 2 2.4182 32.1141 20.5096 38542 38102.1 -1876.6 1382.21 -406.021 1031.98
287 2 0.805968 32.114 22.7882 35990.9 35465.2 -47273.9 859.01 -400.269 447.252
288 2 4.03048 32.1141 25.0697 -198438 -199735 49156.7 1312.71 -134.591 270.706
289 2 0 33.5099 0 -196849 -196921 49068.6 -3.09783 -66.4983 -9.52889
290 2 3.22448 33.5099 2.28145 37448.7 37302.9 -48149.1 260.251 -153.639 193.491
291 2 1.61222 33.51 4.56002 39863.4 39156.1 -1912.62 345.211 -231.333 366.808
292 2 2.41837 34.9062 0 -196876 -196980 48891.2 0.24606 -110.046 -4.16221
293 2 0.806107 34.9062 2.28146 37388.2 37257.6 -48104.4 16.8484 -198.01 88.5986
294 2 4.03059 34.9062 4.56001 39736.2 39495.7 -2186.65 185.832 -426.469 262.666
295 2 38.6939 33.5099 6.83856 39531.6 39630.6 -408.259 43.6007 -14.9379 161.011
296 2 3.22444 33.51 9.11706 39488.2 39395.9 -536.526 477.301 -324.461 728.071
297 2 1.61219 33.51 11.3956 39535.3 39842.8 -525.008 321.736 -284.819 285.384
298 2 2.41833 34.9062 6.83856 39702.4 39600.8 -281.631 387.918 -178.189 250.146
299 2 0.806072 34.9062 9.11706 39472.3 39387 -488.756 304.291 -297.522 360.443
300 2 4.03052 34.9063 11.3956 39578.7 38776.8 -894.248 304.461 -619.275 646.358
301 2 38.6939 33.51 13.6741 39521.6 39403.8 -386.254 434.357 -267.273 347.288
302 2 3.22436 33.5102 15.9526 39339.2 38667.1 -416.852 666.884 -694.055 764.794
303 2 1.61209 33.5102 18.2311 39044.6 38553.6 -613.72 1034.93 -680.293 653.099
304 2 2.41826 34.9063 13.6741 39416.6 38810.9 -702.717 718.932 -401.34 395.51
305 2 0.805991 34.9063 15.9526 39460.6 38742.3 -360.718 727.787 -656.657 591.194
306 2 4.03044 34.9065 18.2311 39325.9 37905.8 -757.053 1209.9 -424.13 958.628
307 2 38.6938 33.5102 20.5097 38898.3 38712.4 -1801.11 969.396 -606.187 564.995
308 2 3.22432 33.5103 22.7882 36460.2 34707 -47445.3 1214.89 -472.724 417.936
309 2 1.61214 33.5103 25.0697 -197494 -198739 49472.6 660.946 160.155 130.96
310 2 2.41819 34.9065 20.5096 39330 37660.4 -1447.97 1016.12 -416.64 653.183
311 2 0.805956 34.9065 22.7882 37195.1 36051.2 -47308.5 1118.47 -250.887 311.881
312 2 4.03056 34.9065 25.0697 -196661 -199632 48622.5 639.472 -195.8 29.1126
313 2 0 36.3024 0 -196872 -196944 48977.1 -10.2338 -59.9163 -24.6363
314 2 3.22448 36.3024 2.28145 37361.2 37284.3 -48086.9 162.94 -168.29 179.527
315 2 1.61221 36.3024 4.56002 39860.7 39150.5 -1917.33 182.366 -228.605 -63.9437
316 2 2.41837 37.6987 0 -196889 -196985 48863 -1.10751 -100.276 0.423696
317 2 0.806103 37.6987 2.28146 37357.8 37283.5 -48035.6 -8.06219 -136.36 -23.0663
318 2 4.03059 37.6987 4.56001 39841.2 39160.9 -2348.67 249.309 -136.522 195.996
319 2 38.6939 36.3024 6.83856 39673 39641.9 -324.779 208.478 -114.399 160.235
320 2 3.22443 36.3025 9.11706 40061.8 39163 -239.371 170.221 -347.592 51.2356
321 2 1.61216 36.3025 11.3956 39177.2 38750.2 -600.081 396.027 -475.125 262.271
322 2 2.41832 37.6987 6.8385 39975.8 39237 -195.857 267.25 -249.271 252.282
323 2 0.806057 37.6987 9.11706 39370.7 38864.1 -713.21 354.276 -362.699 285.405
324 2 4.03052 37.6988 11.3956 39447.9 38373.3 -1139.63 443.872 -424.697 248.818
325 2 38.6938 36.3025 13.6741 39259.9 39334.7 -348.464 484.572 -329.489 69.4995
326 2 3.22435 36.3026 15.9526 39225.4 38357 -494.824 977.443 -486.819 893.755
327 2 1.61208 36.3026 18.2311 39263.9 38353.4 -136.549 1126.03 -700.536 732.932
328 2 2.41825 37.6988 13.6741 39546.6 38528 -403.724 620.877 -388.574 606.707
329 2 0.805983 37.6988 15.9526 39680.9 38427 -302.539 749.694 -639.007 503.868
330 2 4.03048 37.6989 18.2311 40043.8 37451.3 155.414 1118.21 -583.136 922.382
331 2 38.6938 36.3026 20.5097 39421.6 37879.8 -2092.3 926.936 -676.988 547.702
332 2 3.22438 36.3027 22.7882 37695.2 34866.7 -47523.2 1079.1 -267.447 723.716
333 2 1.61217 36.3027 25.0697 -196403 -198379 49519.8 746.65 23.2162 84.3134
334 2 2.41822 37.6989 20.5097 39734.7 37980.4 -1572.81 1045.08 -215.957 296.507
335 2 0.805987 37.6989 22.7882 37663.6 35810.3 -47724.8 660.602 -69.002 309.607
336 2 4.03063 37.6989 25.0697 -195969 -198692 49531.9 77.1371 -58.6476 -12.5792
337 2 0 39.0949 0 -196876 -196957 48936.7 -1.10203 -76.2321 1.32353
338 2 3.22448 39.0949 2.28145 37533.3 37291.3 -48243.2 41.8664 -193.523 118.135
339 2 1.61221 39.0949 4.56002 39634.5 39385.5 -2370.33 135.983 -424.29 97.6922
340 2 2.41837 40.4912 0 -196892 -196984 48862.1 -0.181407 -102.614 -0.152681
341 2 0.806103 40.4912 2.28146 37351.1 37270.7 -48077.1 -1.4735 -154.433 1.14186
342 2 4.03059 40.4912 4.56002 39670.1 39191 -2212.73 221.618 -59.7244 295.003
343 2 38.6939 39.0949 6.83856 39399.2 39476.6 -492.802 131.804 -172.824 87.3983
344 2 3.22442 39.095 9.11706 39868.9 38741.1 -5.71053 262.154 -344.428 167.052
345 2 1.61215 39.095 11.3956 39246.1 38306.1 -736.049 98.2114 -524.457 210.436
346 2 2.41832 40.4912 6.8385 39771.7 39177 -174.423 182.717 -239.746 91.5962
347 2 0.806049 40.4912 9.11706 39393.3 38840.8 -573.329 144.098 -482.889 103.247
348 2 4.03052 40.4912 11.3956 39762 38573.6 -972.511 272.544 -388.544 194.563
349 2 38.6938 39.095 13.6741 39467.9 39064.2 -106.812 214.55 -250.437 170.226
350 2 3.22436 39.0951 15.9526 39706.4 38240.2 -228.198 639.25 -370.339 435.513
351 2 1.6121 39.0951 18.2311 39392.5 38206.7 -101.204 675.581 -270.042 352.216
352 2 2.41826 40.4912 13.6741 39500.6 38633.1 -202.99 311.072 -320.767 312.623
353 2 0.805991 40.4912 15.9526 39521.2 38454.4 -198.276 387.885 -654.524 114.176
354 2 4.03052 40.4913 18.2311 40199.2 37565.2 -175.036 387.262 -363.034 164.598
355 2 38.6938 39.095 20.5097 39777.2 38060.9 -1882.08 533.4 -721.943 355.516
356 2 3.22442 39.0951 22.7882 38267.9 35618.5 -47489.4 365.187 -120.031 85.4167
357 2 1.61219 39.0951 25.0697 -195943 -198261 49560.5 197.789 -40.175 64.9215
358 2 2.41826 40.4913 20.5097 40159.7 38166.6 -1488.01 507.479 -258.143 81.0287
359 2 0.806018 40.4913 22.7882 38132.5 35969.4 -47500.3 385.949 -132.683 188.696
360 2 4.03063 40.4913 25.0697 -196077 -198247 49353.7 223.85 101.646 36.5365
361 2 0 41.8874 0 -196893 -196956 48902.9 -1.17653 -52.0537 1.46826
362 2 3.22448 41.8874 2.28145 37555 37362.4 -48050.6 -0.580917 -127.29 -0.91708
363 2 1.61221 41.8874 4.56002 39783.4 39495.6 -2274.67 -3.70588 -353.672 -3.41977
364 2 2.41837 43.2837 0 -196891 -196983 48863.1 -0.772672 -103.543 1.4015
365 2 0.806103 43.2837 2.28146 37331.3 37222.8 -48111.4 0.393653 -130.627 1.46278
366 2 4.03059 43.2837 4.56002 39919.6 39766.7 -1695.33 -2.18188 111.075 2.10798
367 2 38.6939 41.8874 6.83856 39571.9 39588.8 -315.989 -24.6373 -110.228 -21.8292
368 2 3.22442 41.8874 9.11706 39945.9 39333.8 -190.804 145.765 -26.5019 79.8136
369 2 1.61215 41.8874 11.3956 39531.6 38984 -898.435 127.872 -203.719 114.278
370 2 2.41831 43.2837 6.8385 39885.3 39532.8 -30.2927 -1.29104 -177.57 1.04115
371 2 0.806049 43.2837 9.11706 39575.5 39205.8 -471.316 -0.14454 -410.239 -0.0941133
372 2 4.03052 43.2837 11.3956 39753.2 38526.4 -987.716 -2.88263 -378.65 3.66143
373 2 38.6938 41.8874 13.6741 39803.8 39258 143.951 152.945 -158.533 106.378
374 2 3.22438 41.8875 15.9526 39817.6 37926.4 -98.5565 158.372 -294.412 92.29
375 2 1.61212 41.8875 18.2311 39788.9 37945.1 -108.657 129.114 -213.096 144.822
376 2 2.41826 43.2837 13.6741 39517.1 38611.1 -23.5651 -0.963177 -249.793 0.897665
377 2 0.805995 43.2837 15.9526 39701.3 38643.5 13.1522 0.593059 -222.186 -1.5502