ITEM: TIMESTEP
0
ITEM: NUMBER OF ATOMS
3074
ITEM: BOX BOUNDS pp pp pp
0.0000000000000000e+00 3.8693948398131120e+01
0.0000000000000000e+00 4.4679925159782847e+01
0.0000000000000000e+00 6.0000000000000000e+01
ITEM: ATOMS id type x y z c_peratom[1] c_peratom[2] c_peratom[3] c_peratom[4] c_peratom[5] c_peratom[6]
1 2 0 0 0 -196895 -196962 48887.1 -2.16804 -57.4786 -10.5758
2 2 3.22448 0 2.28145 37496.9 37237.2 -48095.5 -22.1808 -146.945 -24.217
3 2 1.61221 0 4.56002 39704.2 39308 -2349.31 -27.7188 -386.218 -24.2416
4 2 2.41837 1.39625 0 -196894 -196993 48832.8 -8.81762 -115.359 -16.5642
5 2 0.806103 1.39624 2.28146 37312.2 37150.8 -48123 -30.4595 -173.203 -27.7042
6 2 4.03059 1.39623 4.56002 39688.8 39339.1 -2211.67 -130.747 -60.4469 -263.918
7 2 38.6939 0 6.83856 39492.7 39401 -390.519 -25.1163 -142.704 -8.23043
8 2 3.22442 0 9.11706 39881.3 39285.1 -272.056 -88.0064 -54.0449 -47.6109
9 2 1.61215 0 11.3956 39429.8 38872.2 -994.614 -90.8708 -237.733 -94.9299
10 2 2.41832 1.39623 6.8385 39745.5 39287.5 -229.586 -122.591 -252.043 -62.995
11 2 0.806049 1.39623 9.11706 39345 38937.9 -645.084 -117.291 -499.894 -86.186
12 2 4.03052 1.3962 11.3956 39773 38559.6 -1022.31 -254.302 -404.911 -214.374
13 2 38.6938 0 13.6741 39702.1 39194.7 47.4933 -134.573 -192.813 -89.4827
14 2 3.22438 44.6799 15.9526 39772.3 38078.5 -165.228 -131.703 -315.706 -102.483
15 2 1.61212 44.6799 18.2311 39729.3 38150.2 -142.961 -137.857 -222.841 -118.57
16 2 2.41826 1.39619 13.6741 39453.9 38540.4 -153.616 -324.987 -305.52 -260.788
17 2 0.805991 1.39619 15.9526 39622 38419.1 -115.929 -338.762 -627.788 -68.7921
18 2 4.03052 1.39615 18.2311 40376 37894.7 -59.0837 -402.34 -325.381 -173.208
19 2 38.6938 44.6799 20.5097 40150.1 38275.9 -1495.54 -108.049 -520.454 119.728
20 2 3.22445 44.6799 22.7882 38469.2 35951.3 -47500.7 -82.6668 -207.731 -33.146
21 2 1.61221 44.6799 25.0697 -195758 -198028 49612.1 -79.193 -37.5868 -50.0209
22 2 2.41826 1.39616 20.5097 40175.5 38076.2 -1467.76 -483.477 -238.599 -158.995
23 2 0.806018 1.39617 22.7882 38134.8 36213.7 -47471.6 -421.284 -120.015 -138.073
24 2 4.03063 1.39616 25.0697 -195730 -198242 49304.8 -82.5 85.5202 8.52249
25 2 0 2.7925 0 -196878 -196962 48920.8 -9.53799 -81.7756 -30.0658
26 2 3.22448 2.79249 2.28145 37491.3 37308.5 -48147.3 -71.6356 -159.445 -116.369
27 2 1.61221 2.79248 4.56002 39736.6 39448 -2274.01 -98.5853 -390.809 -78.1138
28 2 2.41837 4.18874 0 -196886 -196975 48893.3 -7.685 -88.3638 -18.3181
29 2 0.806103 4.18873 2.28146 37399 37357.9 -47988.9 -22.5217 -118.639 -2.97718
30 2 4.03059 4.18871 4.56001 39819.8 39290.4 -2355.87 -164.082 -131.797 -159.097
31 2 38.6939 2.79248 6.83856 39518.1 39545 -397.434 -125.016 -139.027 -68.7671
32 2 3.22442 2.79245 9.11706 40040.6 39297.3 110.939 -202.439 -290.941 -177.524
33 2 1.61215 2.79245 11.3956 39415.9 38856.5 -635.398 -127.063 -476.709 -227.148
34 2 2.41832 4.18871 6.8385 40019.6 39498.1 4.03313 -173.164 -169.923 -125.695
35 2 0.806057 4.18871 9.11706 39609.7 39192.1 -496.343 -191.768 -276.818 -171.737
36 2 4.03052 4.18865 11.3956 39635.2 38543.7 -932.67 -563.845 -350.488 -369.882
37 2 38.6938 2.79245 13.6741 39442.3 39085.8 9.69408 -194.712 -197.018 -195.863
38 2 3.22436 2.79238 15.9526 39702.1 38273.4 -116.721 -583.16 -331.27 -370.362
39 2 1.6121 2.79238 18.2311 39531.2 38240 -133.479 -629.749 -281.324 -331.141
40 2 2.41825 4.18864 13.6741 39612.2 38674.9 -295.572 -671.136 -346.793 -653.866
41 2 0.805983 4.18864 15.9526 39578.7 38460.7 -387.071 -699.197 -665.32 -456.408
42 2 4.03048 4.18854 18.2311 40047.3 37983.1 42.1183 -1031.03 -622.894 -932.074
43 2 38.6938 2.7924 20.5097 39800.9 38082.9 -1834.68 -575.657 -704.879 -270.429
44 2 3.22442 2.79235 22.7882 38328.6 35617.2 -47580.8 -451.89 -162.284 -75.7739
45 2 1.61219 2.79238 25.0697 -195887 -198234 49591.9 -219.55 -29.0107 -75.97
46 2 2.41822 4.18856 20.5097 39701.3 37938.2 -1626.48 -1017.85 -212.404 -379.176
47 2 0.805987 4.18859 22.7882 37652.3 36113.9 -47769.5 -693.948 -70.5071 -264.127
48 2 4.03063 4.18856 25.0697 -195791 -198672 49571.5 -271.392 -37.9749 12.4205
49 2 0 5.58499 0 -196868 -196933 49008.6 3.60612 -48.7981 5.78546
50 2 3.22448 5.58499 2.28145 37461 37391.4 -48138.4 -175.259 -183.085 -147.387
51 2 1.61221 5.58499 4.56002 39837.8 39270.1 -1945.5 -117.461 -233.925 108.329
52 2 2.41837 6.98124 0 -196880 -196983 48888 -1.88533 -109.961 6.71015
53 2 0.806107 6.98124 2.28146 37387 37348.8 -48107 -18.5711 -196.464 -86.3809
54 2 4.03059 6.98119 4.56001 39720.2 39335.5 -2212.97 -168.471 -406.279 -284.918
55 2 38.6939 5.58499 6.83856 39605.9 39750.5 -346.585 -162.972 -116.024 -111.197
56 2 3.22443 5.58495 9.11706 39948.8 39115.5 -279.13 -183.857 -362.917 -84.288
57 2 1.61216 5.58495 11.3956 39102.5 38768 -616.662 -455.568 -481.192 -308.1
58 2 2.41833 6.98119 6.83856 39687.6 39409 -435.642 -352.894 -239.897 -159.518
59 2 0.806072 6.98119 9.11706 39275 39158.5 -649.063 -157.86 -355.68 -277.947
60 2 4.03052 6.9811 11.3956 39395.2 38708.1 -904.421 -418.608 -612.169 -628.657
61 2 38.6938 5.58495 13.6741 39380.8 39362.3 -380.519 -474.884 -340.753 -127.051
62 2 3.22435 5.58481 15.9526 39288.5 38214.4 -391.96 -909.592 -440.628 -727.376
63 2 1.61208 5.58481 18.2311 39362.6 38170.7 -70.8738 -979.826 -679.713 -725.779
64 2 2.41826 6.9811 13.6741 39579.5 38903.3 -864.514 -656.891 -456.316 -488.847
65 2 0.805991 6.9811 15.9526 39459.3 38834.5 -360.887 -724.294 -654.321 -593.313
66 2 4.03044 6.98097 18.2311 39165.1 37667 -601.082 -1075.91 -364.704 -861.749
67 2 38.6938 5.58481 20.5097 39399 38001.6 -2003.75 -937.967 -654.489 -402.271
68 2 3.22438 5.58472 22.7882 38037.1 35139.5 -47463.2 -1073.87 -242.496 -712.611
69 2 1.61217 5.58477 25.0697 -196253 -198500 49594.8 -955.584 54.2989 -228.944
70 2 2.41819 6.98097 20.5096 39498 37827.5 -1439.85 -913.542 -436.663 -647.974
71 2 0.805956 6.98101 22.7882 37214.5 35814.3 -47317.4 -1086.31 -244.331 -332.339
72 2 4.03056 6.98093 25.0697 -196586 -199541 48773.8 -641.022 -309.076 -24.9564
73 2 0 8.37749 0 -196849 -196921 49068.5 3.13325 -66.5341 9.63804
74 2 3.22448 8.37749 2.28145 37448.7 37302.4 -48150.2 -260.241 -154.034 -194.092
75 2 1.61222 8.37744 4.56002 39906.7 39284.8 -1576.15 -267.835 -110.811 -149.076
76 2 2.41837 9.77373 0 -196889 -196969 48884.6 -0.886732 -80.9578 12.3493
77 2 0.806115 9.77373 2.28146 37497 37369.1 -47889.3 -39.0051 -128.437 -162.707
78 2 4.03059 9.77369 4.56001 39760 39521 -2116.88 -94.4276 -301.633 -347.254
79 2 38.6939 8.37749 6.83856 39504.8 39618.7 -415.748 -30.3639 -20.6579 -168.438
80 2 3.22444 8.3774 9.11706 39656.7 38873.8 -861.615 -305.365 -452.782 -521.886
81 2 1.61219 8.3774 11.3956 39542.8 39386.4 -501.773 -329.155 -292.692 -277.106
82 2 2.41834 9.77369 6.83856 39544.8 39502.6 -470.728 -390.581 -183.958 -316.586
83 2 0.806096 9.77369 9.11706 39563.3 39511.1 -345.851 -363.196 -143.434 -148.333
84 2 4.03056 9.7736 11.3955 39901.5 39399.2 -878.437 -390.382 -382.558 -381.253
85 2 38.6939 8.37744 13.6741 39526.7 39415.5 -375.026 -442.973 -275.342 -335.356
86 2 3.22436 8.37726 15.9526 39313.1 38597.1 -588.098 -642.938 -742.642 -654.661
87 2 1.61209 8.37726 18.2311 38865.7 38496.3 -614.038 -931.629 -680.47 -651.029
88 2 2.41831 9.7736 13.6741 39652 39395.2 -74.7144 -296.35 -432.891 -460.93
89 2 0.806045 9.7736 15.9526 39495.2 39738.1 -184.354 -478.35 -591.709 -508.085
90 2 4.03044 9.77338 18.2311 38996.3 37809.6 -630.832 -1150.34 -1112.55 -1014.94
91 2 38.6938 8.37726 20.5097 38876 38655.7 -1962.68 -935.551 -664.01 -469.203
92 2 3.22432 8.37708 22.7882 36545.2 34739 -47445.3 -1471.64 -473.007 -415.805
93 2 1.61214 8.37717 25.0697 -197507 -198796 49329.8 -896.152 93.4712 -225.718
94 2 2.4182 9.77338 20.5096 38381.7 38075.7 -1846.73 -1286.8 -419.867 -1036.64
95 2 0.805968 9.77342 22.7882 36022.4 35014.6 -47260.9 -865.236 -408.158 -463.54
96 2 4.03048 9.77329 25.0697 -198440 -199276 49143.8 -1310.41 -134.448 -282.346
97 2 0 11.17 0 -196869 -196911 49036.2 -10.7002 -50.3813 -0.65893
98 2 3.22449 11.17 2.28145 37307.1 37244.6 -48249.3 -257.112 -104.772 -158.194
99 2 1.61224 11.1699 4.56002 39817.3 40157.4 -1932.87 -53.6991 -118.087 -348.088
100 2 2.41837 12.5662 0 -196914 -196957 48831.5 -9.81702 -34.0363 0.547066
101 2 0.806123 12.5662 2.28146 37259.3 37379.5 -47985.4 139.664 62.2268 -114.265
102 2 4.03063 12.5662 4.55999 39706.2 39537.8 -2630.33 -46.2296 -70.1513 -425.025
103 2 0 11.17 6.83856 39644.5 39689.9 -229.175 -146.339 0.557861 -111.805
104 2 3.22448 11.1699 9.117 39401.5 39782.8 -934.525 -91.0251 -239.333 -404.79
105 2 1.61223 11.1699 11.3956 39724.5 39952.2 -158.718 -272.909 -443.542 -156.464
106 2 2.41838 12.5662 6.8385 39598.3 39570 -220.113 -122.469 -152.15 -118.049
107 2 0.806138 12.5662 9.11706 40041 40197.5 -402.105 -152.745 -188.288 -424.077
108 2 4.03063 12.5661 11.3955 39721.8 39890.3 -415.968 -320.554 -357.316 -393.596
109 2 38.6939 11.1699 13.6741 39537.9 39515.3 -339.934 -255.936 -145.525 -642.833
110 2 3.22444 11.1698 15.9526 39342.3 39493.9 -656.767 -579.634 -665.164 -780.913
111 2 1.61218 11.1698 18.2311 38815 39064.6 -182.626 -491.569 -458.221 -1014.83
112 2 2.41839 12.5661 13.6741 39279.3 39905.9 -379.596 -250.927 -18.1494 -671.791
113 2 0.806161 12.5661 15.9526 39532.3 39973.6 -545.311 -39.484 -104.499 -580.548
114 2 4.03056 12.5659 18.231 38080.6 39201.9 -986.611 -639.129 -875.203 -1145.99
115 2 38.6939 11.1698 20.5097 38870.9 38779.3 -2165.84 -342.75 -214.665 -641.694
116 2 3.2243 11.1695 22.7882 34428.5 35180 -47271.4 -1320.11 -496.321 -938.451
117 2 1.61212 11.1696 25.0697 -199643 -198833 49267.5 -881.139 -172.326 -30.0102
118 2 2.41832 12.5659 20.5096 37044.1 38673.9 -2068.62 -242.516 -667.386 -1057.79
119 2 0.806092 12.5658 22.7882 34267.2 35622.6 -47421 -97.1537 -333.924 -820.246
120 2 4.03032 12.5657 25.0696 -201460 -198777 49288.1 -2510.36 -435.744 -170.789
121 2 0 13.9625 0 -196987 -196925 48756.6 -17.3641 81.1246 -8.91012
122 2 3.2245 13.9625 2.28145 37033.7 37171.6 -48536.1 -254.742 -14.8123 -223.344
123 2 1.61226 13.9625 4.56001 39632.5 40131.3 -2425.6 -299.535 99.6492 -110.472
124 2 2.41837 15.3587 0 -196978 -196966 48661.3 -17.4819 38.7681 -14.1343
125 2 0.806138 15.3587 2.28145 37088.1 37279.5 -48388 23.9988 44.2718 -23.1697
126 2 4.03063 15.3587 4.55998 39350.9 39852.6 -2955.02 -155.321 -76.9319 -73.4559
127 2 2.82679e-05 13.9625 6.8385 39712.9 39847.4 -373.747 -32.9399 237.886 -249.724
128 2 3.22453 13.9624 9.117 39597.1 40025 -751.739 75.0514 -27.9065 -261.273
129 2 1.61231 13.9624 11.3955 39631.4 39662.3 -476.945 -111.261 3.87172 -619.622
130 2 2.41842 15.3587 6.8385 39402 39994.6 -1021.29 98.8178 85.515 -290.49
131 2 0.806204 15.3587 9.117 39628 40283.5 -798.183 170.36 326.327 -314.513
132 2 4.03071 15.3586 11.3954 39113.3 40231 -1174.11 267.585 33.3335 -471.542
133 2 9.72646e-05 13.9624 13.6741 39857.8 39868.7 -407.577 236.731 24.1641 -179.541
134 2 3.22459 13.9623 15.9525 38562.6 40016.8 -511.144 -39.4095 -89.7781 -832.969
135 2 1.61238 13.9623 18.2311 37773.7 39340.4 -856.443 603.787 91.5065 -608.122
136 2 2.41854 15.3586 13.6739 38824.8 40380.2 -907.715 394.935 292.089 -531.479
137 2 0.80637 15.3586 15.9525 38193.3 39983.3 -985.334 516.879 716.173 -1050.27
138 2 4.03075 15.3585 18.2309 36933.9 39951.8 -618.448 246.143 -344.03 -1111.46
139 2 0.000178521 13.9622 20.5096 37348.1 39108.3 -1470.94 960.122 348.721 -1042.51
140 2 3.22436 13.962 22.7881 32187.2 36131.2 -47602 -804.585 -780.612 -817.646
141 2 1.61212 13.9621 25.0697 -202681 -198268 49264 -630.496 -255.438 -167.527
142 2 2.41855 15.3584 20.5095 35480.1 39598.1 -2183.84 475.416 -24.9528 -1236.42
143 2 0.80632 15.3584 22.7881 31611.5 36935.7 -47294 1030.47 8.3392 -758.539
144 2 4.03017 15.3583 25.0696 -205555 -198169 49412.6 -2420.8 -472.551 -364.41
145 2 0 16.755 0 -197048 -196940 48581.8 -15.735 114.615 -20.6695
146 2 3.22451 16.755 2.28143 37180.5 37287.2 -48773.8 33.7913 156.915 -110.299
147 2 1.61229 16.755 4.55998 39586.6 39769.6 -2738.05 76.9306 363.588 -230.234
148 2 2.41837 18.1512 0 -197059 -196984 48462.5 -15.9148 72.4268 -18.6524
149 2 0.80615 18.1512 2.28143 37048.4 37294.1 -48950.7 10.3433 250.586 -33.5668
150 2 4.03067 18.1512 4.55995 39231.9 39901.7 -3253.62 -1.14775 178.524 -298.834
151 2 7.25976e-05 16.755 6.83844 39773.6 39914.1 -998.223 103.706 371.723 -124.982
152 2 3.22461 16.7549 9.11694 39159.7 39993.1 -1221.36 -77.7953 285.716 -309.214
153 2 1.61243 16.7549 11.3954 38760.5 40041.5 -1744.14 326.114 666.095 -241.353
154 2 2.41847 18.1512 6.83844 39351.1 40061.5 -1426.76 -90.157 257.567 -237.299
155 2 0.806277 18.1512 9.11694 39310.1 39914.9 -1324.14 309.55 703.03 -31.6416
156 2 4.03083 18.1512 11.3954 38567.2 40383.7 -1465.32 62.802 768.195 -440.202
157 2 0.000272864 16.7549 13.6739 38949.2 40501 -1799.67 567.651 1222.38 -629.974
158 2 3.22479 16.7548 15.9524 37200.9 40285.2 -1560.71 346.754 804.554 -633.824
159 2 1.61266 16.7548 18.2309 35683.6 40511.2 -1064.29 943.885 1106.91 -887.941
160 2 2.4187 18.1512 13.6739 37874.5 40373.6 -1866.71 355.224 1208.16 -225.944
161 2 0.806618 18.1512 15.9523 36785.6 40665.6 -1290.4 962.626 2107.86 -288.74
162 2 4.03094 18.151 18.2308 35592.4 40736.1 -753.027 340.173 517.04 -599.677
163 2 0.000544691 16.7547 20.5094 33984.7 40079.1 -1989.75 1983.88 1246.93 -860.849
164 2 3.22447 16.7546 22.788 30437 37452.3 -47683.8 -109.024 -674.595 -854.301
165 2 1.61214 16.7547 25.0696 -205258 -197504 49502.6 -362.721 -406.306 -351.405
166 2 2.41878 18.151 20.5094 33540.2 40468.2 -2228.66 781.414 568.616 -391.515
167 2 0.806544 18.151 22.7879 29049.6 37732.7 -47862.2 1036.38 454.833 -507.85
168 2 4.03005 18.151 25.0695 -208167 -197055 49804.2 -1617.77 -823.825 -166.579
169 2 0 19.5475 0 -197094 -196971 48419 -14.0056 123.712 -29.7086
170 2 3.22453 19.5475 2.28142 36973.1 37184.1 -49291.6 9.50903 201.16 -31.0739
171 2 1.61231 19.5475 4.55996 39379.2 39638 -3024.86 -10.8555 298.304 7.89455
172 2 2.41837 20.9437 0 -197112 -197000 48321.1 -0.303713 127.681 0.688647
173 2 0.806157 20.9437 2.28142 37072.4 37302.5 -49131.6 -0.282306 288.38 0.00562248
174 2 4.03067 20.9437 4.55994 39120.6 39276.4 -3718.73 0.366514 36.9162 0.0809299
175 2 0.000112 19.5475 6.83844 39115 39786.7 -1960.12 112.069 818.52 -178.978
176 2 3.22466 19.5475 9.11688 38720.4 39815.9 -1924.64 84.4312 440.302 -185.649
177 2 1.61252 19.5475 11.3954 38405.9 40192.9 -2236.6 6.67215 1235.65 -293.582
178 2 2.41849 20.9437 6.83844 38649.8 39337.4 -2149.71 0.844976 449.82 0.627673
179 2 0.806316 20.9437 9.11688 38584.5 39670.3 -2456.14 -0.20716 1113 0.434053
180 2 4.03086 20.9437 11.3953 38072.3 40241.2 -1716.45 -0.0944679 796.627 0.0464432
181 2 0.00043237 19.5475 13.6738 37706.5 40549.5 -2765.73 364.403 2267.55 -410.962
182 2 3.22494 19.5474 15.9523 35866.5 40542.5 -1692.72 375.058 1337.95 -227.01
183 2 1.61287 19.5474 18.2308 34014.5 41159.5 -1512.34 605.327 1920.97 -314.603
184 2 2.41877 20.9437 13.6738 36927.7 40156 -2227.84 1.67645 1329.99 0.044722
185 2 0.80673 20.9437 15.9523 35339.7 40460.6 -1832.05 35.8043 2759.21 101.105
186 2 4.03102 20.9437 18.2308 34451.7 41394 -1064.6 15.4082 867.933 0.00121237
187 2 0.000826623 19.5474 20.5093 30575.3 40607.9 -3040.16 851.227 2493.68 -357.614
188 2 3.22456 19.5473 22.7879 29494.1 38301.7 -47747.6 94.4651 -526.102 -490.34
189 2 1.61216 19.5473 25.0694 -207141 -196408 49244.1 -42.3287 -367.587 -129.828
190 2 2.41887 20.9437 20.5093 32553.3 40577.1 -2759.99 -30.4671 898.443 -90.7866
191 2 0.806641 20.9437 22.7879 28051.8 38277.2 -48155.1 0.370509 717.526 0.524548
192 2 4.03001 20.9437 25.0694 -209000 -196628 49274.4 -0.0551423 -929.64 0.0141983
193 2 0 22.34 0 -197093 -196968 48427 15.6068 126.281 34.5585
194 2 3.22453 22.34 2.28142 36946.7 37175.1 -49291.5 5.92342 201.264 31.1227
195 2 1.61231 22.34 4.55996 39377.9 39635.1 -3033.99 12.4398 296.552 -2.8154
196 2 2.41837 23.7362 0 -197067 -196984 48446.7 15.9157 83.4348 18.6543
197 2 0.806154 23.7362 2.28143 37048.5 37294 -48950.7 -10.3178 250.468 33.5569
198 2 4.03067 23.7362 4.55995 39258.6 39902.5 -3244.16 0.852542 193.922 299.543
199 2 0.000112283 22.34 6.83844 39113.4 39789.7 -1952.88 -110.575 819.636 183.907
200 2 3.22466 22.34 9.11688 38693.5 39807.7 -1923.91 -69.9017 440.268 186.393
201 2 1.61252 22.34 11.3954 38404.8 40189.2 -2246.89 -6.05509 1234.35 299.523
202 2 2.41847 23.7362 6.83844 39337.2 40062.2 -1434.71 93.37 270.991 242.212
203 2 0.806281 23.7362 9.11694 39337.6 39925.3 -1318.41 -292.89 704.829 37.8403
204 2 4.03083 23.7363 11.3954 38541.5 40371.8 -1472.6 -45.8041 767.365 445.092
205 2 0.000432792 22.34 13.6738 37707 40548.7 -2765.86 -365.048 2263.94 413.678
206 2 3.22494 22.34 15.9523 35865 40555.2 -1697.11 -362.965 1341.52 215.246
207 2 1.61288 22.3401 18.2308 34013.9 40687.9 -1514.02 -605.837 1922.16 314.836
208 2 2.4187 23.7363 13.6739 37863.3 40366.8 -1874.13 -350.866 1205.82 230.809
209 2 0.806618 23.7363 15.9523 36743.2 40613.4 -1445.21 -928.669 2041.25 384.796
210 2 4.03094 23.7364 18.2308 35181.4 40605.7 -752.941 -340.186 517.11 599.729
211 2 0.000827013 22.3401 20.5093 30768.4 40678.1 -3012.78 -962.9 2474.62 373.717
212 2 3.22456 22.3401 22.7879 29494.2 38301 -47747.4 -94.6193 -526.094 489.566
213 2 1.61216 22.3401 25.0694 -207141 -196409 49244.1 41.7029 -367.608 129.822
214 2 2.41878 23.7364 20.5094 33509.3 40402.5 -2404.93 -812.782 506.516 296.152
215 2 0.806544 23.7364 22.7879 29049.1 37731.1 -47865 -1039.25 453.168 506.485
216 2 4.03005 23.7365 25.0695 -208168 -196585 49804.3 1617.96 -823.718 166.625
217 2 0 25.1325 0 -197047 -196937 48589.7 14.1478 117.21 15.81
218 2 3.22451 25.1325 2.28143 37154.2 37278.3 -48773.6 -49.2252 157.03 110.263
219 2 1.61229 25.1325 4.55998 39585.2 39769.9 -2741.02 -77.018 365.713 230.349
220 2 2.41837 26.5287 0 -196978 -196965 48661.9 17.7896 38.5231 13.4472
221 2 0.806138 26.5287 2.28145 37088.1 37279.6 -48388 -23.7305 44.2845 23.1777
222 2 4.03063 26.5288 4.55998 39343.6 39853 -2971.03 154.895 -65.6636 73.4105
223 2 7.33502e-05 25.1325 6.83844 39799.5 39926.1 -991.131 -90.2252 372.476 120.172
224 2 3.22461 25.1325 9.11694 39124.3 39981.1 -1245.11 63.9558 294.633 314.064
225 2 1.61243 25.1325 11.3954 38766 40038.1 -1741.13 -327.877 655.584 237.135
226 2 2.41842 26.5288 6.8385 39392.1 39998.3 -1004.09 -97.9655 90.1361 290.426
227 2 0.806204 26.5287 9.117 39690.1 40303 -777.602 -171.839 316.575 309.817
228 2 4.03071 26.5288 11.3954 39085 40215.1 -1190.56 -283.179 28.188 471.069
229 2 0.000273969 25.1325 13.6739 38957.4 40500.5 -1783.44 -567.714 1207.47 627.2
230 2 3.22479 25.1326 15.9524 37199.5 40299 -1563.72 -337.958 807.88 621.545
231 2 1.61266 25.1326 18.2309 35682.2 40039.6 -1068.53 -943.943 1109.38 888.565
232 2 2.41854 26.5288 13.6739 38800.9 40358.1 -926.876 -387.322 297.536 514.436
233 2 0.80637 26.5288 15.9525 38194.3 40459.9 -974.059 -517.2 719.707 1050.09
234 2 4.03075 26.529 18.2309 36881.5 39935.2 -618.667 -245.987 -344.221 1111.64
235 2 0.000545705 25.1327 20.5094 33818.4 40033.4 -1963.59 -2093.71 1228.05 873.058
236 2 3.22447 25.1328 22.788 30451.5 37495.7 -47536 150.745 -610.641 936.703
237 2 1.61214 25.1328 25.0696 -205078 -196976 49502.7 463.029 -406.269 351.423
238 2 2.41855 26.529 20.5095 35463.4 39587.6 -2200.47 -474.313 -30.2335 1237.25
239 2 0.80632 26.5291 22.7881 31631.6 36990.4 -47139.7 -994.273 62.2369 855.19
240 2 4.03017 26.5292 25.0696 -205376 -197641 49412.5 2407.21 -472.581 527.919
241 2 0 27.925 0 -196987 -196925 48756.6 17.3511 81.133 8.92075
242 2 3.2245 27.925 2.28145 37033.7 37171.8 -48535.9 254.719 -14.8632 223.418
243 2 1.61226 27.925 4.56001 39631.4 40135.2 -2421.6 298.121 105.043 105.588
244 2 2.41837 29.3212 0 -196914 -196957 48831.5 9.85511 -34.0225 -0.52738
245 2 0.806123 29.3212 2.28146 37259.4 37379.7 -47984.9 -139.544 62.403 114.578
246 2 4.03063 29.3212 4.55999 39711.9 39555.4 -2622.92 34.7444 -76.769 437.786
247 2 2.92422e-05 27.925 6.8385 39738.8 39859.4 -366.649 19.4292 238.517 254.231
248 2 3.22454 27.925 9.117 39569.9 40012.5 -759.097 -61.0031 -30.5974 255.643
249 2 1.61231 27.925 11.3955 39635.1 39658.9 -475.655 113.168 -5.90179 623.95
250 2 2.41838 29.3212 6.8385 39584.6 39571.6 -227.791 116.761 -138.939 117.705
251 2 0.806142 29.3212 9.11706 40061 40186.3 -412.428 126.363 -181.614 434.461
252 2 4.03063 29.3213 11.3955 39736.4 39930.7 -274.461 343.881 -293.946 496.362
253 2 9.86568e-05 27.925 13.6741 39877.6 39924.9 -247.838 -202.648 81.3212 274.737
254 2 3.22459 27.9251 15.9525 38729.2 40061.8 -537.456 -69.8113 -70.3948 844.351
255 2 1.61238 27.9252 18.2311 37791.4 39398.4 -700.971 -637.357 151.643 512.478
256 2 2.41839 29.3213 13.6741 39440.3 39955.9 -379.652 352.525 -18.1137 669.195
257 2 0.806161 29.3213 15.9526 39532.2 39974.6 -542.858 37.7774 -103.418 575.423
258 2 4.03056 29.3216 18.231 38054.1 39191.7 -987.386 621.038 -875.154 1143.81
259 2 0.000179755 27.9252 20.5096 37356.1 39108.2 -1455.84 -959.152 337.876 1041.83
260 2 3.22436 27.9254 22.7881 32187.8 36131 -47601.7 873.379 -780.184 1005.01
261 2 1.61212 27.9254 25.0697 -202681 -198268 49264 920.632 -255.462 331.079
262 2 2.41832 29.3216 20.5096 37027.6 38664.7 -2076.07 239.532 -669.86 1052.88
263 2 0.806092 29.3216 22.7882 34241.5 35551 -47595.3 141.539 -383.246 904.183
264 2 4.03032 29.3217 25.0696 -201640 -199306 49288 2497.02 -435.982 334.384
265 2 0 30.7174 0 -196869 -196911 49036.2 10.7061 -50.3685 0.667313
266 2 3.22449 30.7174 2.28145 37307.1 37244.7 -48248.1 257.005 -104.719 158.836
267 2 1.61224 30.7175 4.56002 39773.3 40025.7 -2277.03 -22.4227 -241.165 134.791
268 2 2.41837 32.1137 0 -196886 -196968 48885.4 0.918933 -79.5349 -12.3204
269 2 0.806115 32.1137 2.28146 37497.2 37369.2 -47888.1 38.9913 -127.945 162.703
270 2 4.03059 32.1137 4.56001 39601.2 39519.7 -2426.9 93.0741 -79.5387 349.254
271 2 0 30.7174 6.83856 39646.1 39695.8 -213.171 146.458 9.16595 113.769
272 2 3.22448 30.7175 9.117 39571.8 39952.8 -590.456 116.138 -116.661 191.674
273 2 1.61223 30.7175 11.3956 39719.5 39944.8 -181.235 275.435 -445.011 157.85
274 2 2.41834 32.1137 6.8385 39537.2 39502.5 -486.682 392.836 -173.089 317.021
275 2 0.806099 32.1137 9.11706 39738.7 39508.6 -2.46434 362.749 -389.345 148.558
276 2 4.03056 32.1138 11.3955 39901.9 39397.8 -878.731 457.059 -381.706 575.595
277 2 38.6939 30.7175 13.6741 39517.5 39458.1 -500.422 289.883 -202.255 738.563
278 2 3.22444 30.7177 15.9526 39157.6 39424.5 -667.718 468.245 -657.175 794.349
279 2 1.61218 30.7177 18.2311 38792.1 39007.1 -347.26 457.431 -512.281 918.761
280 2 2.41831 32.1138 13.6741 39643.7 39402.7 -64.1895 505.167 -441.099 449.217
281 2 0.806045 32.1138 15.9526 39494.3 39264.5 -188.862 478.093 -593.366 507.327
282 2 4.03044 32.1141 18.2311 39016.1 38338.2 -470.35 1184.01 -1055.34 1110.5
283 2 38.6939 30.7177 20.5097 38870 38777.8 -2166.59 342.787 -214.18 640.503
284 2 3.2243 30.7179 22.7882 34408.7 35123.9 -47429.7 1354.13 -551.556 1032.93
285 2 1.61212 30.7179 25.0697 -199643 -199305 49267.7 881.7 -172.684 29.7617
286 2 2.4182 32.1141 20.5096 38542 38102.1 -1876.59 1382.21 -406.021 1031.98
287 2 0.805968 32.114 22.7882 35990.9 35465.2 -47273.9 859.01 -400.269 447.252
288 2 4.03048 32.1141 25.0697 -198438 -199735 49156.7 1312.72 -134.59 270.706
289 2 0 33.5099 0 -196848 -196921 49068.6 -3.09808 -66.4981 -9.52947
290 2 3.22448 33.5099 2.28145 37448.7 37302.9 -48149.1 260.251 -153.639 193.491
291 2 1.61222 33.51 4.56002 39863.4 39156.1 -1912.6 345.211 -231.333 366.808
292 2 2.41837 34.9062 0 -196876 -196980 48891.2 0.24599 -110.047 -4.16277
293 2 0.806107 34.9062 2.28146 37388.3 37257.6 -48104.4 16.8484 -198.01 88.5986
294 2 4.03059 34.9062 4.56001 39736.2 39495.7 -2186.63 185.832 -426.47 262.666
295 2 38.6939 33.5099 6.83856 39531.6 39630.6 -408.246 43.6007 -14.9381 161.011
296 2 3.22444 33.51 9.11706 39488.2 39395.9 -536.515 477.301 -324.461 728.071
297 2 1.61219 33.51 11.3956 39535.3 39842.8 -524.998 321.736 -284.819 285.384
298 2 2.41833 34.9062 6.83856 39702.4 39600.8 -281.618 387.918 -178.189 250.146
299 2 0.806072 34.9062 9.11706 39472.3 39387 -488.743 304.291 -297.522 360.444
300 2 4.03052 34.9063 11.3956 39578.7 38776.8 -894.237 304.461 -619.275 646.358
301 2 38.6939 33.51 13.6741 39521.6 39403.8 -386.243 434.358 -267.273 347.287
302 2 3.22436 33.5102 15.9526 39339.2 38667.2 -416.835 666.884 -694.054 764.794
303 2 1.61209 33.5102 18.2311 39044.6 38553.6 -613.705 1034.93 -680.292 653.099
304 2 2.41826 34.9063 13.6741 39416.6 38810.9 -702.705 718.932 -401.341 395.51
305 2 0.805991 34.9063 15.9526 39460.6 38742.3 -360.705 727.787 -656.658 591.194
306 2 4.03044 34.9065 18.2311 39325.9 37905.8 -757.042 1209.9 -424.129 958.627
307 2 38.6938 33.5102 20.5097 38898.4 38712.4 -1801.09 969.395 -606.187 564.995
308 2 3.22432 33.5103 22.7882 36460.2 34707 -47445.3 1214.89 -472.724 417.936
309 2 1.61214 33.5103 25.0697 -197494 -198739 49472.6 660.945 160.155 130.961
310 2 2.41819 34.9065 20.5096 39330 37660.4 -1447.96 1016.12 -416.639 653.183
311 2 0.805956 34.9065 22.7882 37195.1 36051.2 -47308.5 1118.47 -250.887 311.881
312 2 4.03056 34.9065 25.0697 -196661 -199632 48622.5 639.472 -195.801 29.1132
313 2 0 36.3024 0 -196872 -196944 48977.1 -10.2339 -59.9163 -24.6369
314 2 3.22448 36.3024 2.28145 37361.3 37284.4 -48086.9 162.94 -168.29 179.526
315 2 1.61221 36.3024 4.56002 39860.7 39150.5 -1917.32 182.366 -228.605 -63.9437
316 2 2.41837 37.6987 0 -196889 -196985 48863 -1.10816 -100.276 0.423141
317 2 0.806103 37.6987 2.28146 37357.8 37283.5 -48035.6 -8.06225 -136.36 -23.0667
318 2 4.03059 37.6987 4.56001 39841.2 39160.9 -2348.65 249.309 -136.522 195.996
319 2 38.6939 36.3024 6.83856 39673.1 39641.9 -324.766 208.478 -114.399 160.235
320 2 3.22443 36.3025 9.11706 40061.8 39163 -239.358 170.221 -347.592 51.2358
321 2 1.61216 36.3025 11.3956 39177.2 38750.2 -600.071 396.027 -475.125 262.271
322 2 2.41832 37.6987 6.8385 39975.8 39237.1 -195.845 267.25 -249.271 252.282
323 2 0.806057 37.6987 9.11706 39370.7 38864.1 -713.196 354.276 -362.699 285.406
324 2 4.03052 37.6988 11.3956 39447.9 38373.4 -1139.62 443.872 -424.697 248.818
325 2 38.6938 36.3025 13.6741 39259.9 39334.7 -348.454 484.572 -329.489 69.499
326 2 3.22435 36.3026 15.9526 39225.4 38357.1 -494.811 977.443 -486.819 893.755
327 2 1.61208 36.3026 18.2311 39264 38353.5 -136.537 1126.03 -700.536 732.932
328 2 2.41825 37.6988 13.6741 39546.6 38528 -403.715 620.877 -388.574 606.707
329 2 0.805983 37.6988 15.9526 39680.9 38427 -302.529 749.694 -639.007 503.868
330 2 4.03048 37.6989 18.2311 40043.8 37451.3 155.427 1118.21 -583.136 922.382
331 2 38.6938 36.3026 20.5097 39421.6 37879.8 -2092.29 926.936 -676.988 547.703
332 2 3.22438 36.3027 22.7882 37695.2 34866.7 -47523.2 1079.1 -267.447 723.716
333 2 1.61217 36.3027 25.0697 -196403 -198379 49519.8 746.649 23.2163 84.3133
334 2 2.41822 37.6989 20.5097 39734.8 37980.5 -1572.8 1045.08 -215.957 296.507
335 2 0.805987 37.6989 22.7882 37663.6 35810.3 -47724.8 660.602 -69.0019 309.607
336 2 4.03063 37.6989 25.0697 -195969 -198692 49532 77.136 -58.6477 -12.5792
337 2 0 39.0949 0 -196876 -196957 48936.7 -1.10188 -76.2322 1.32304
338 2 3.22448 39.0949 2.28145 37533.3 37291.3 -48243.2 41.8663 -193.523 118.135
339 2 1.61221 39.0949 4.56002 39634.5 39385.5 -2370.31 135.983 -424.29 97.6917
340 2 2.41837 40.4912 0 -196892 -196984 48862.1 -0.1821 -102.614 -0.153084
341 2 0.806103 40.4912 2.28146 37351.2 37270.8 -48077.1 -1.47353 -154.433 1.14137
342 2 4.03059 40.4912 4.56002 39670.1 39191 -2212.72 221.619 -59.7242 295.003
343 2 38.6939 39.0949 6.83856 39399.2 39476.6 -492.79 131.804 -172.824 87.3987
344 2 3.22442 39.095 9.11706 39868.9 38741.1 -5.69732 262.154 -344.428 167.053
345 2 1.61215 39.095 11.3956 39246.1 38306.1 -736.037 98.2112 -524.457 210.436
346 2 2.41832 40.4912 6.8385 39771.7 39177 -174.413 182.718 -239.746 91.5966
347 2 0.806049 40.4912 9.11706 39393.3 38840.8 -573.316 144.099 -482.889 103.248
348 2 4.03052 40.4912 11.3956 39762 38573.6 -972.498 272.544 -388.544 194.563
349 2 38.6938 39.095 13.6741 39467.9 39064.2 -106.801 214.55 -250.437 170.225
350 2 3.22436 39.0951 15.9526 39706.4 38240.2 -228.187 639.25 -370.339 435.513
351 2 1.6121 39.0951 18.2311 39392.5 38206.7 -101.194 675.581 -270.042 352.216
352 2 2.41826 40.4912 13.6741 39500.6 38633.2 -202.978 311.071 -320.767 312.623
353 2 0.805991 40.4912 15.9526 39521.2 38454.4 -198.264 387.885 -654.524 114.175
354 2 4.03052 40.4913 18.2311 40199.2 37565.2 -175.025 387.262 -363.035 164.598
355 2 38.6938 39.095 20.5097 39777.2 38060.9 -1882.07 533.4 -721.943 355.516
356 2 3.22442 39.0951 22.7882 38267.9 35618.5 -47489.4 365.187 -120.031 85.4167
357 2 1.61219 39.0951 25.0697 -195943 -198261 49560.5 197.79 -40.1749 64.9214
358 2 2.41826 40.4913 20.5097 40159.7 38166.6 -1487.99 507.48 -258.143 81.0289
359 2 0.806018 40.4913 22.7882 38132.5 35969.4 -47500.3 385.95 -132.683 188.696
360 2 4.03063 40.4913 25.0697 -196077 -198247 49353.7 223.85 101.646 36.5363
361 2 0 41.8874 0 -196893 -196956 48902.9 -1.17629 -52.054 1.46804
362 2 3.22448 41.8874 2.28145 37555 37362.4 -48050.6 -0.580979 -127.29 -0.917318
363 2 1.61221 41.8874 4.56002 39783.4 39495.6 -2274.65 -3.70584 -353.671 -3.42012
364 2 2.41837 43.2837 0 -196891 -196983 48863.1 -0.77263 -103.543 1.40148
365 2 0.806103 43.2837 2.28146 37331.3 37222.8 -48111.4 0.393671 -130.627 1.46274
366 2 4.03059 43.2837 4.56002 39919.6 39766.8 -1695.31 -2.18186 111.076 2.10789
367 2 38.6939 41.8874 6.83856 39571.9 39588.8 -315.981 -24.6374 -110.228 -21.829
368 2 3.22442 41.8874 9.11706 39945.9 39333.8 -190.791 145.765 -26.5024 79.814
369 2 1.61215 41.8874 11.3956 39531.6 38984 -898.421 127.871 -203.719 114.279
370 2 2.41831 43.2837 6.8385 39885.4 39532.8 -30.2849 -1.29106 -177.57 1.04115
371 2 0.806049 43.2837 9.11706 39575.5 39205.8 -471.304 -0.144578 -410.239 -0.0940584
372 2 4.03052 43.2837 11.3956 39753.2 38526.4 -987.702 -2.88263 -378.651 3.66151
373 2 38.6938 41.8874 13.6741 39803.8 39258 143.965 152.945 -158.533 106.378
374 2 3.22438 41.8875 15.9526 39817.6 37926.4 -98.544 158.371 -294.412 92.2898
375 2 1.61212 41.8875 18.2311 39788.9 37945.1 -108.646 129.114 -213.096 144.822
376 2 2.41826 43.2837 13.6741 39517.1 38611.1 -23.5508 -0.963153 -249.793 0.897678
377 2 0.805995 43.2837 15.9526 39701.3 38643.6 13.1662 0.59315 -222.186 -1.55024