ITEM: TIMESTEP
0
ITEM: NUMBER OF ATOMS
3074
ITEM: BOX BOUNDS pp pp pp
0.0000000000000000e+00 3.8693948398131120e+01
0.0000000000000000e+00 4.4679925159782847e+01
0.0000000000000000e+00 6.0000000000000000e+01
ITEM: ATOMS id type x y z v_stress_xx v_stress_yy v_stress_zz v_stress_xy v_stress_xz v_stress_yz
1 2 0 0 0 2481.16 2482 -616.047 0.0273206 0.724309 0.133273
2 2 3.22448 0 2.28145 -2435.25 -2418.38 3123.58 1.44054 9.54344 1.57279
3 2 1.61221 0 4.56002 -2580.28 -2554.53 152.677 1.80138 25.0994 1.57542
4 2 2.41837 1.39625 0 2481.15 2482.39 -615.362 0.111124 1.45369 0.208738
5 2 0.806103 1.39624 2.28146 -2423.26 -2412.78 3125.37 1.97821 11.2488 1.79929
6 2 4.03059 1.39623 4.56002 -2579.28 -2556.56 143.732 8.49689 3.92832 17.1514
7 2 38.6939 0 6.83856 -2566.56 -2560.61 25.3797 1.63227 9.2741 0.534871
8 2 3.22442 0 9.11706 -2591.81 -2553.06 17.6812 5.71936 3.51224 3.09413
9 2 1.61215 0 11.3956 -2562.5 -2526.27 64.6399 5.90561 15.45 6.16939
10 2 2.41832 1.39623 6.8385 -2582.98 -2553.22 14.921 7.96696 16.3798 4.09391
11 2 0.806049 1.39623 9.11706 -2556.98 -2530.53 41.9241 7.6226 32.4875 5.60108
12 2 4.03052 1.3962 11.3956 -2584.81 -2505.95 66.4398 16.5269 26.3147 13.932
13 2 38.6938 0 13.6741 -2580.16 -2547.19 -3.08559 8.74567 12.5305 5.81532
14 2 3.22438 44.6799 15.9526 -2584.75 -2474.67 10.7388 8.5592 20.5173 6.66023
15 2 1.61212 44.6799 18.2311 -2581.96 -2479.34 9.29159 8.95913 14.4822 7.70573
16 2 2.41826 1.39619 13.6741 -2564.06 -2504.69 9.98411 21.1205 19.8553 16.9483
17 2 0.805991 1.39619 15.9526 -2574.98 -2496.8 7.53489 22.0157 40.7991 4.47073
18 2 4.03052 1.39615 18.2311 -2623.97 -2462.72 3.84049 26.1475 21.146 11.2565
19 2 38.6938 44.6799 20.5097 -2609.26 -2487.46 97.1924 7.02185 33.823 -7.78084
20 2 3.22445 44.6799 22.7882 -2498.39 -2334.87 3084.95 5.36881 13.4911 2.15267
21 2 1.61221 44.6799 25.0697 1557.96 1576.02 -394.842 0.630262 0.299137 0.398096
22 2 2.41826 1.39616 20.5097 -2610.91 -2474.48 95.387 31.4201 15.506 10.3327
23 2 0.806018 1.39617 22.7882 -2476.68 -2351.91 3083.05 27.3604 7.79439 8.96715
24 2 4.03063 1.39616 25.0697 1557.73 1577.73 -392.397 0.656584 -0.68062 -0.0678257
25 2 0 2.7925 0 2480.94 2482.01 -616.471 0.12019 1.03049 0.378879
26 2 3.22448 2.79249 2.28145 -2434.88 -2423.01 3126.95 4.65241 10.3552 7.55766
27 2 1.61221 2.79248 4.56002 -2582.38 -2563.63 147.784 6.40681 25.3978 5.07646
28 2 2.41837 4.18874 0 2481.05 2482.16 -616.125 0.0968498 1.11351 0.23084
29 2 0.806103 4.18873 2.28146 -2428.89 -2426.22 3116.65 1.46268 7.70505 0.193381
30 2 4.03059 4.18871 4.56001 -2587.79 -2553.39 153.103 10.6633 8.56518 10.3394
31 2 38.6939 2.79248 6.83856 -2568.21 -2569.96 25.8292 8.12459 9.03511 4.46902
32 2 3.22442 2.79245 9.11706 -2602.15 -2553.84 -7.20889 13.1561 18.9076 11.5368
33 2 1.61215 2.79245 11.3956 -2561.59 -2525.24 41.2946 8.25771 30.9808 14.7621
34 2 2.41832 4.18871 6.8385 -2600.78 -2566.9 -0.261301 11.2535 11.0429 8.16859
35 2 0.806057 4.18871 9.11706 -2574.17 -2547.03 32.2574 12.4627 17.99 11.1609
36 2 4.03052 4.18865 11.3956 -2575.85 -2504.92 60.614 36.6438 22.7779 24.0383
37 2 38.6938 2.79245 13.6741 -2563.29 -2540.12 -0.629258 12.654 12.8039 12.7288
38 2 3.22436 2.79238 15.9526 -2580.19 -2487.34 7.58635 37.8988 21.5288 24.0693
39 2 1.6121 2.79238 18.2311 -2569.09 -2485.17 8.67532 40.9266 18.2829 21.5204
40 2 2.41825 4.18864 13.6741 -2574.35 -2513.43 19.2095 43.6162 22.5376 42.4939
41 2 0.805983 4.18864 15.9526 -2572.17 -2499.52 25.156 45.44 43.2383 29.6614
42 2 4.03048 4.18854 18.2311 -2602.62 -2468.47 -2.73638 67.005 40.481 60.5742
43 2 38.6938 2.7924 20.5097 -2586.58 -2474.93 119.233 37.4108 45.8087 17.5747
44 2 3.22442 2.79235 22.7882 -2489.27 -2313.18 3090.16 29.3483 10.5396 4.92118
45 2 1.61219 2.79238 25.0697 1558.99 1577.67 -394.683 1.74731 0.230886 0.604616
46 2 2.41822 4.18856 20.5097 -2580.11 -2465.53 105.703 66.1481 13.8037 24.6419
47 2 0.805987 4.18859 22.7882 -2445.35 -2345.44 3102.42 45.0689 4.57914 17.1539
48 2 4.03063 4.18856 25.0697 1558.1 1581.03 -394.489 2.15973 0.302202 -0.0988431
49 2 0 5.58499 0 2480.81 2481.64 -617.577 -0.045443 0.614925 -0.0728979
50 2 3.22448 5.58499 2.28145 -2432.92 -2428.4 3126.36 11.3823 11.8905 9.57212
51 2 1.61221 5.58499 4.56002 -2588.95 -2552.06 126.434 7.63348 15.2022 -7.04004
52 2 2.41837 6.98124 0 2480.97 2482.27 -616.059 0.023758 1.38566 -0.0845507
53 2 0.806107 6.98124 2.28146 -2428.11 -2425.63 3124.33 1.2061 12.7594 5.61005
54 2 4.03059 6.98119 4.56001 -2581.32 -2556.32 143.817 10.9485 26.4031 18.5161
55 2 38.6939 5.58499 6.83856 -2573.91 -2583.31 22.5248 10.5912 7.54015 7.22647
56 2 3.22443 5.58495 9.11706 -2596.2 -2542.05 18.141 11.9485 23.5854 5.47771
57 2 1.61216 5.58495 11.3956 -2541.23 -2519.5 40.077 29.6069 31.2722 20.0231
58 2 2.41833 6.98119 6.83856 -2579.23 -2561.12 28.3124 22.934 15.5905 10.3667
59 2 0.806072 6.98119 9.11706 -2552.43 -2544.86 42.1826 10.2591 23.1152 18.0634
60 2 4.03052 6.9811 11.3956 -2560.26 -2515.6 58.7783 27.205 39.7843 40.8558
61 2 38.6938 5.58495 13.6741 -2559.3 -2558.09 24.73 30.862 22.145 8.25688
62 2 3.22435 5.58481 15.9526 -2553.32 -2483.52 25.474 59.1136 28.636 47.2716
63 2 1.61208 5.58481 18.2311 -2558.13 -2480.67 4.60674 63.6779 44.1738 47.1676
64 2 2.41826 6.9811 13.6741 -2572.23 -2528.28 56.1846 42.6906 29.6554 31.7696
65 2 0.805991 6.9811 15.9526 -2564.41 -2523.8 23.4544 47.0709 42.5234 38.5586
66 2 4.03044 6.98097 18.2311 -2545.33 -2447.96 39.0647 69.9231 23.702 56.0048
67 2 38.6938 5.58481 20.5097 -2560.48 -2469.66 130.222 60.957 42.5342 26.1429
68 2 3.22438 5.58472 22.7882 -2470.35 -2282.17 3082.54 69.7436 15.7491 46.2812
69 2 1.61217 5.58477 25.0697 1561.85 1579.73 -394.692 7.60487 -0.432129 1.82201
70 2 2.41819 6.98097 20.5096 -2566.9 -2458.34 93.5741 59.3695 28.378 42.1106
71 2 0.805956 6.98101 22.7882 -2416.93 -2325.99 3073.07 70.5514 15.8683 21.584
72 2 4.03056 6.98093 25.0697 1564.71 1588.23 -388.211 5.10215 2.46006 0.198635
73 2 0 8.37749 0 2480.57 2481.48 -618.333 -0.0394822 0.838426 -0.121446
74 2 3.22448 8.37749 2.28145 -2432.12 -2422.62 3127.14 16.9014 10.0038 12.6054
75 2 1.61222 8.37744 4.56002 -2593.42 -2553.01 102.43 17.4058 7.20129 9.688
76 2 2.41837 9.77373 0 2481.08 2482.09 -616.015 0.0111692 1.02018 -0.155614
77 2 0.806115 9.77373 2.28146 -2435.25 -2426.94 3110.18 2.53319 8.34135 10.567
78 2 4.03059 9.77369 4.56001 -2583.9 -2568.37 137.572 6.1366 19.6023 22.5671
79 2 38.6939 8.37749 6.83856 -2567.34 -2574.75 27.0196 1.9733 1.34252 10.9465
80 2 3.22444 8.3774 9.11706 -2577.24 -2526.36 55.9961 19.8453 29.4258 33.9167
81 2 1.61219 8.3774 11.3956 -2569.82 -2559.66 32.6101 21.3912 19.0216 18.0087
82 2 2.41834 9.77369 6.83856 -2569.95 -2567.2 30.5926 25.3832 11.9552 20.5744
83 2 0.806096 9.77369 9.11706 -2571.15 -2567.75 22.477 23.6035 9.32154 9.63991
84 2 4.03056 9.7736 11.3955 -2593.13 -2560.49 57.0891 25.3703 24.8618 24.777
85 2 38.6939 8.37744 13.6741 -2568.78 -2561.54 24.3729 28.7881 17.894 21.7942
86 2 3.22436 8.37726 15.9526 -2554.92 -2508.39 38.2209 41.7839 48.2636 42.5458
87 2 1.61209 8.37726 18.2311 -2525.86 -2501.85 39.9067 60.546 44.2234 42.3099
88 2 2.41831 9.7736 13.6741 -2576.91 -2560.22 4.85653 19.2592 28.1328 29.955
89 2 0.806045 9.7736 15.9526 -2566.72 -2582.5 11.9818 31.0871 38.4541 33.0195
90 2 4.03044 9.77338 18.2311 -2534.36 -2457.24 40.9978 74.7599 72.3044 65.9603
91 2 38.6938 8.37726 20.5097 -2526.48 -2512.17 127.553 60.8 43.1529 30.4927
92 2 3.22432 8.37708 22.7882 -2373.5 -2256.2 3081.43 95.5783 30.7204 27.0053
93 2 1.61214 8.37717 25.0697 1571.86 1582.11 -392.589 7.132 -0.743894 1.79637
94 2 2.4182 9.77338 20.5096 -2494.39 -2474.5 120.018 83.6277 27.2867 67.3701
95 2 0.805968 9.77342 22.7882 -2339.55 -2274.09 3069.46 56.1945 26.5086 30.1055
96 2 4.03048 9.77329 25.0697 1579.17 1585.82 -391.082 10.4281 1.06993 2.24689
97 2 0 11.17 0 2480.83 2481.36 -617.926 0.13484 0.634879 0.00830769
98 2 3.22449 11.17 2.28145 -2422.93 -2418.87 3133.58 16.6983 6.80446 10.274
99 2 1.61224 11.1699 4.56002 -2587.61 -2609.71 125.613 3.48974 7.67414 22.6212
100 2 2.41837 12.5662 0 2481.4 2481.95 -615.346 0.123704 0.428897 -0.0068934
101 2 0.806123 12.5662 2.28146 -2419.82 -2427.62 3116.43 -9.07051 -4.04134 7.42094
102 2 4.03063 12.5662 4.55999 -2580.42 -2569.47 170.941 3.00436 4.559 27.6214
103 2 0 11.17 6.83856 -2576.41 -2579.37 14.8945 9.51025 -0.0362644 7.26595
104 2 3.22448 11.1699 9.117 -2560.64 -2585.42 60.7341 5.91557 15.5539 26.3067
105 2 1.61223 11.1699 11.3956 -2581.61 -2596.41 10.3154 17.7357 28.8248 10.1682
106 2 2.41838 12.5662 6.8385 -2573.42 -2571.58 14.3055 7.959 9.88797 7.67176
107 2 0.806138 12.5662 9.11706 -2602.17 -2612.34 26.1325 9.92651 12.2363 27.5598
108 2 4.03063 12.5661 11.3955 -2581.44 -2592.39 27.034 20.8322 23.2213 25.5791
109 2 38.6939 11.1699 13.6741 -2569.5 -2568.03 22.0925 16.6328 9.45746 41.7765
110 2 3.22444 11.1698 15.9526 -2556.8 -2566.65 42.683 37.6697 43.2281 50.7505
111 2 1.61218 11.1698 18.2311 -2522.54 -2538.76 11.8694 31.9466 29.7793 65.9529
112 2 2.41839 12.5661 13.6741 -2552.69 -2593.41 24.6702 16.3074 1.17956 43.6585
113 2 0.806161 12.5661 15.9526 -2569.13 -2597.81 35.4399 2.56607 6.79132 37.7287
114 2 4.03056 12.5659 18.231 -2474.85 -2547.72 64.12 41.5367 56.879 74.4776
115 2 38.6939 11.1698 20.5097 -2526.16 -2520.2 140.756 22.2747 13.9507 41.7028
116 2 3.2243 11.1695 22.7882 -2236.06 -2284.87 3070.18 85.7382 32.235 60.9504
117 2 1.61212 11.1696 25.0697 1588.76 1582.31 -392.07 7.01208 1.37136 0.238821
118 2 2.41832 12.5659 20.5096 -2407.48 -2513.4 134.44 15.7609 43.373 68.7455
119 2 0.806092 12.5658 22.7882 -2225.58 -2313.61 3079.89 6.30987 21.6876 53.2731
120 2 4.03032 12.5657 25.0696 1603.31 1581.96 -392.257 19.9787 3.46788 1.35923
121 2 0 13.9625 0 2482.32 2481.53 -614.403 0.218814 -1.02228 0.112277
122 2 3.2245 13.9625 2.28145 -2405.18 -2414.14 3152.22 16.5444 0.961985 14.5053
123 2 1.61226 13.9625 4.56001 -2575.61 -2608.03 157.635 19.466 -6.47592 7.17932
124 2 2.41837 15.3587 0 2482.21 2482.05 -613.202 0.220296 -0.488542 0.178105
125 2 0.806138 15.3587 2.28145 -2408.71 -2421.15 3142.59 -1.55862 -2.87527 1.50477
126 2 4.03063 15.3587 4.55998 -2557.33 -2589.94 192.042 10.094 4.99967 4.77377
127 2 2.82679e-05 13.9625 6.8385 -2580.86 -2589.6 24.2899 2.1407 -15.4597 16.2291
128 2 3.22453 13.9624 9.117 -2573.34 -2601.15 48.8551 -4.87748 1.81356 16.9796
129 2 1.61231 13.9624 11.3955 -2575.57 -2577.58 30.9967 7.23064 -0.251646 40.2681
130 2 2.41842 15.3587 6.8385 -2560.67 -2599.19 66.3725 -6.42201 -5.55748 18.8785
131 2 0.806204 15.3587 9.117 -2575.35 -2617.94 51.8731 -11.0714 -21.2074 20.4396
132 2 4.03071 15.3586 11.3954 -2541.92 -2614.55 76.3049 -17.39 -2.16619 30.6449
133 2 9.72646e-05 13.9624 13.6741 -2590.27 -2590.98 26.4886 -15.3846 -1.5703 11.668
134 2 3.22459 13.9623 15.9525 -2506.13 -2600.64 33.2187 2.56115 5.83451 54.1336
135 2 1.61238 13.9623 18.2311 -2454.9 -2556.72 55.6605 -39.2399 -5.94702 39.5216
136 2 2.41854 15.3586 13.6739 -2523.17 -2624.25 58.9918 -25.6662 -18.9823 34.54
137 2 0.80637 15.3586 15.9525 -2482.15 -2598.48 64.0372 -33.5914 -46.5434 68.2562
138 2 4.03075 15.3585 18.2309 -2400.32 -2596.46 40.1942 -15.997 22.3581 72.2333
139 2 0.000178521 13.9622 20.5096 -2427.21 -2541.6 95.5954 -62.3973 -22.663 67.7512
140 2 3.22436 13.962 22.7881 -2090.52 -2346.68 3091.69 52.2568 50.6999 53.1052
141 2 1.61212 13.9621 25.0697 1612.91 1577.79 -392.036 5.01738 2.03275 1.33316
142 2 2.41855 15.3584 20.5095 -2305.85 -2573.48 141.929 -30.8975 1.62149 80.355
143 2 0.80632 15.3584 22.7881 -2053.12 -2398.92 3071.68 -66.9274 -0.541641 49.266
144 2 4.03017 15.3583 25.0696 1635.83 1577.05 -393.23 19.2651 3.76061 2.90001
145 2 0 16.755 0 2483.09 2481.72 -612.2 0.198284 -1.44431 0.260456
146 2 3.22451 16.755 2.28143 -2414.72 -2421.65 3167.66 -2.1946 -10.191 7.16346
147 2 1.61229 16.755 4.55998 -2572.64 -2584.54 177.941 -4.99954 -23.6288 14.9624
148 2 2.41837 18.1512 0 2483.23 2482.28 -610.698 0.20055 -0.912688 0.235038
149 2 0.80615 18.1512 2.28143 -2406.15 -2422.11 3179.16 -0.671757 -16.2746 2.18002
150 2 4.03067 18.1512 4.55995 -2549.61 -2593.14 211.448 0.0746046 -11.602 19.4207
151 2 7.25976e-05 16.755 6.83844 -2584.82 -2593.95 64.8737 -6.73966 -24.1577 8.12243
152 2 3.22461 16.7549 9.11694 -2544.93 -2599.1 79.3758 5.0558 -18.5684 20.0955
153 2 1.61243 16.7549 11.3954 -2519.01 -2602.26 113.351 -21.1939 -43.2889 15.6853
154 2 2.41847 18.1512 6.83844 -2557.38 -2603.55 92.7237 5.85918 -16.739 15.4218
155 2 0.806277 18.1512 9.11694 -2554.71 -2594.02 86.0552 -20.1173 -45.6891 2.05637
156 2 4.03083 18.1512 11.3954 -2506.44 -2624.5 95.2307 -4.08143 -49.9241 28.6083
157 2 0.000272864 16.7549 13.6739 -2531.26 -2632.11 116.96 -36.891 -79.4412 40.9413
158 2 3.22479 16.7548 15.9524 -2417.68 -2618.13 101.431 -22.5355 -52.2879 41.1921
159 2 1.61266 16.7548 18.2309 -2319.09 -2632.84 69.1691 -61.3435 -71.9386 57.7075
160 2 2.4187 18.1512 13.6739 -2461.45 -2623.86 121.317 -23.0859 -78.5178 14.6841
161 2 0.806618 18.1512 15.9523 -2390.68 -2642.84 83.8637 -62.5608 -136.989 18.7651
162 2 4.03094 18.151 18.2308 -2313.15 -2647.44 48.9418 -22.1081 -33.6027 38.973
163 2 0.000544691 16.7547 20.5094 -2208.68 -2604.76 129.314 -128.934 -81.0385 55.947
164 2 3.22447 16.7546 22.788 -1976.85 -2432.5 3097.03 7.08104 43.8146 55.4862
165 2 1.61214 16.7547 25.0696 1633.52 1571.81 -393.959 2.88664 3.23355 2.79661
166 2 2.41878 18.151 20.5094 -2179.8 -2630.06 144.845 -50.7847 -36.955 25.4448
167 2 0.806544 18.151 22.7879 -1886.77 -2450.74 3108.65 -67.3129 -29.5414 32.9848
168 2 4.03005 18.151 25.0695 1656.5 1568.08 -396.32 12.8735 6.5556 1.32556
169 2 0 19.5475 0 2483.66 2482.12 -610.149 0.17649 -1.55895 0.374366
170 2 3.22453 19.5475 2.28142 -2401.27 -2414.97 3201.31 -0.617574 -13.0646 2.01813
171 2 1.61231 19.5475 4.55996 -2559.18 -2576 196.581 0.705485 -19.3862 -0.513038
172 2 2.41837 20.9437 0 2483.9 2482.48 -608.916 0.00382712 -1.60897 -0.00867889
173 2 0.806157 20.9437 2.28142 -2407.71 -2422.65 3190.91 0.018334 -18.7292 -0.000365528
174 2 4.03067 20.9437 4.55994 -2542.4 -2552.53 241.677 -0.0238185 -2.39914 -0.005257
175 2 0.000112 19.5475 6.83844 -2542.05 -2585.71 127.388 -7.28329 -53.195 11.6316
176 2 3.22466 19.5475 9.11688 -2516.41 -2587.61 125.083 -5.48714 -28.615 12.0652
177 2 1.61252 19.5475 11.3954 -2495.98 -2612.12 145.357 -0.43362 -80.3044 19.0798
178 2 2.41849 20.9437 6.83844 -2511.84 -2556.53 139.71 -0.0549146 -29.2338 -0.0407873
179 2 0.806316 20.9437 9.11688 -2507.6 -2578.17 159.625 0.0134659 -72.3337 -0.0282076
180 2 4.03086 20.9437 11.3953 -2474.3 -2615.25 111.552 0.00613756 -51.7722 -0.00302001
181 2 0.00043237 19.5475 13.6738 -2450.55 -2635.32 179.747 -23.6826 -147.368 26.7085
182 2 3.22494 19.5474 15.9523 -2330.98 -2634.88 110.011 -24.3752 -86.9543 14.7535
183 2 1.61287 19.5474 18.2308 -2210.64 -2675.01 98.2892 -39.341 -124.846 20.4464
184 2 2.41877 20.9437 13.6738 -2399.94 -2609.76 144.789 -0.108954 -86.4362 -0.00290638
185 2 0.80673 20.9437 15.9523 -2296.76 -2629.57 119.068 -2.32696 -179.324 -6.57094
186 2 4.03102 20.9437 18.2308 -2239.04 -2690.22 69.192 -1.00141 -56.4077 -9.52713e-05
187 2 0.000826623 19.5474 20.5093 -1987.17 -2639.22 197.587 -55.3235 -162.071 23.2423
188 2 3.22456 19.5473 22.7879 -1915.62 -2487.67 3101.18 -6.13543 34.1704 31.8473
189 2 1.61216 19.5473 25.0694 1648.65 1563.22 -391.937 0.336893 2.92568 1.0333
190 2 2.41887 20.9437 20.5093 -2115.68 -2637.16 179.378 1.9801 -58.3913 5.90035
191 2 0.806641 20.9437 22.7879 -1821.98 -2486.12 3127.69 -0.0240577 -46.6036 -0.0340702
192 2 4.03001 20.9437 25.0694 1663.41 1564.95 -392.17 0.000432414 7.39886 -0.000111162
193 2 0 22.34 0 2483.65 2482.08 -610.25 -0.196669 -1.59132 -0.435483
194 2 3.22453 22.34 2.28142 -2399.56 -2414.39 3201.3 -0.384708 -13.0714 -2.02131
195 2 1.61231 22.34 4.55996 -2559.1 -2575.81 197.175 -0.808447 -19.2724 0.182957
196 2 2.41837 23.7362 0 2483.33 2482.28 -610.498 -0.200562 -1.0514 -0.235064
197 2 0.806154 23.7362 2.28143 -2406.16 -2422.1 3179.16 0.670102 -16.2669 -2.17939
198 2 4.03067 23.7362 4.55995 -2551.34 -2593.19 210.833 -0.0554183 -12.6026 -19.4668
199 2 0.000112283 22.34 6.83844 -2541.95 -2585.9 126.917 7.18618 -53.2676 -11.952
200 2 3.22466 22.34 9.11688 -2514.67 -2587.08 125.035 4.54288 -28.6128 -12.1136
201 2 1.61252 22.34 11.3954 -2495.91 -2611.88 146.026 0.393517 -80.2196 -19.4659
202 2 2.41847 23.7362 6.83844 -2556.47 -2603.59 93.2409 -6.06799 -17.6113 -15.741
203 2 0.806281 23.7362 9.11694 -2556.5 -2594.69 85.6824 19.0345 -45.806 -2.45921
204 2 4.03083 23.7363 11.3954 -2504.78 -2623.72 95.7038 2.97674 -49.8701 -28.9261
205 2 0.000432792 22.34 13.6738 -2450.58 -2635.26 179.755 23.7245 -147.134 -26.885
206 2 3.22494 22.34 15.9523 -2330.88 -2635.71 110.296 23.5893 -87.186 -13.9889
207 2 1.61288 22.3401 18.2308 -2210.61 -2644.36 98.3989 39.3743 -124.924 -20.4616
208 2 2.4187 23.7363 13.6739 -2460.72 -2623.43 121.8 22.8026 -78.3658 -15.0002
209 2 0.806618 23.7363 15.9523 -2387.93 -2639.46 93.9253 60.354 -132.661 -25.0079
210 2 4.03094 23.7364 18.2308 -2286.45 -2638.98 48.9363 22.109 -33.6076 -38.9766
211 2 0.000827013 22.3401 20.5093 -1999.72 -2643.77 195.808 62.5813 -160.832 -24.2888
212 2 3.22456 22.3401 22.7879 -1915.63 -2487.62 3101.17 6.14536 34.1698 -31.797
213 2 1.61216 22.3401 25.0694 1648.65 1563.23 -391.936 -0.331912 2.92585 -1.03326
214 2 2.41878 23.7364 20.5094 -2177.8 -2625.79 156.3 52.8235 -32.9192 -19.2471
215 2 0.806544 23.7364 22.7879 -1886.73 -2450.63 3108.83 67.4991 -29.4333 -32.8961
216 2 4.03005 23.7365 25.0695 1656.5 1564.32 -396.318 -12.875 6.55474 -1.32592
217 2 0 25.1325 0 2483.08 2481.68 -612.3 -0.178283 -1.47701 -0.19922
218 2 3.22451 25.1325 2.28143 -2413.01 -2421.07 3167.65 3.19697 -10.1985 -7.16112
219 2 1.61229 25.1325 4.55998 -2572.55 -2584.56 178.134 5.00522 -23.7668 -14.9699
220 2 2.41837 26.5287 0 2482.21 2482.04 -613.209 -0.224174 -0.485455 -0.169446
221 2 0.806138 26.5287 2.28145 -2408.71 -2421.15 3142.6 1.5412 -2.87609 -1.50529
222 2 4.03063 26.5288 4.55998 -2556.86 -2589.97 193.082 -10.0663 4.26736 -4.77083
223 2 7.33502e-05 25.1325 6.83844 -2586.5 -2594.73 64.4127 5.86358 -24.2066 -7.80981
224 2 3.22461 25.1325 9.11694 -2542.64 -2598.32 80.919 -4.15638 -19.1479 -20.4106
225 2 1.61243 25.1325 11.3954 -2519.37 -2602.04 113.156 21.3085 -42.6059 -15.4112
226 2 2.41842 26.5288 6.8385 -2560.03 -2599.43 65.255 6.36662 -5.85779 -18.8744
227 2 0.806204 26.5287 9.117 -2579.38 -2619.21 50.5355 11.1675 -20.5736 -20.1344
228 2 4.03071 26.5288 11.3954 -2540.08 -2613.52 77.3742 18.4034 -1.83178 -30.6142
229 2 0.000273969 25.1325 13.6739 -2531.8 -2632.08 115.905 36.8951 -78.472 -40.761
230 2 3.22479 25.1326 15.9524 -2417.59 -2619.03 101.626 21.9639 -52.5041 -40.3941
231 2 1.61266 25.1326 18.2309 -2319.01 -2602.2 69.4446 61.3475 -72.0995 -57.7484
232 2 2.41854 26.5288 13.6739 -2521.61 -2622.81 60.2373 25.1714 -19.3363 -33.4325
233 2 0.80637 26.5288 15.9525 -2482.21 -2629.44 63.3042 33.6121 -46.7728 -68.244
234 2 4.03075 26.529 18.2309 -2396.92 -2595.38 40.2082 15.9869 22.3705 -72.2453
235 2 0.000545705 25.1327 20.5094 -2197.88 -2601.79 127.615 136.072 -79.8115 -56.7406
236 2 3.22447 25.1328 22.788 -1977.8 -2435.31 3087.42 -9.79079 39.6608 -60.8381
237 2 1.61214 25.1328 25.0696 1632.07 1567.59 -393.956 -3.6849 3.23322 -2.79672
238 2 2.41855 26.529 20.5095 -2304.77 -2572.8 143.01 30.8258 1.96469 -80.4091
239 2 0.80632 26.5291 22.7881 -2054.42 -2402.47 3061.65 64.5765 -4.04222 -55.5432
240 2 4.03017 26.5292 25.0696 1634.39 1572.83 -393.226 -19.1567 3.76085 -4.20121
241 2 0 27.925 0 2482.32 2481.53 -614.403 -0.218649 -1.02239 -0.11241
242 2 3.2245 27.925 2.28145 -2405.18 -2414.15 3152.21 -16.5429 0.965286 -14.5101
243 2 1.61226 27.925 4.56001 -2575.54 -2608.28 157.375 -19.3741 -6.82642 -6.86193
244 2 2.41837 29.3212 0 2481.39 2481.94 -615.346 -0.124184 0.428724 0.00664671
245 2 0.806123 29.3212 2.28146 -2419.82 -2427.64 3116.4 9.06272 -4.05279 -7.44129
246 2 4.03063 29.3212 4.55999 -2580.78 -2570.62 170.459 -2.25796 4.98907 -28.4508
247 2 2.92422e-05 27.925 6.8385 -2582.54 -2590.38 23.8286 -1.26267 -15.5007 -16.522
248 2 3.22454 27.925 9.117 -2571.58 -2600.34 49.3332 3.96451 1.98843 -16.6138
249 2 1.61231 27.925 11.3955 -2575.81 -2577.36 30.9128 -7.35456 0.383504 -40.5494
250 2 2.41838 29.3212 6.8385 -2572.53 -2571.68 14.8045 -7.58811 9.0294 -7.64947
251 2 0.806142 29.3212 9.11706 -2603.47 -2611.61 26.8034 -8.21201 11.8027 -28.2346
252 2 4.03063 29.3213 11.3955 -2582.39 -2595.01 17.8378 -22.3481 19.103 -32.2575
253 2 9.86568e-05 27.925 13.6741 -2591.55 -2594.63 16.1074 13.1696 -5.28486 -17.8545
254 2 3.22459 27.9251 15.9525 -2516.96 -2603.56 34.9286 4.53694 4.57484 -54.8731
255 2 1.61238 27.9252 18.2311 -2456.05 -2560.49 45.5562 41.4215 -9.85519 -33.3057
256 2 2.41839 29.3213 13.6741 -2563.15 -2596.66 24.6739 -22.91 1.17723 -43.4897
257 2 0.806161 29.3213 15.9526 -2569.12 -2597.87 35.2805 -2.45515 6.72106 -37.3957
258 2 4.03056 29.3216 18.231 -2473.12 -2547.05 64.1701 -40.3609 56.8759 -74.3359
259 2 0.000179755 27.9252 20.5096 -2427.73 -2541.6 94.6143 62.3342 -21.9582 -67.7076
260 2 3.22436 27.9254 22.7881 -2090.56 -2346.67 3091.68 -56.7249 50.672 -65.2743
261 2 1.61212 27.9254 25.0697 1612.91 1577.79 -392.036 -7.32623 2.03293 -2.63468
262 2 2.41832 29.3216 20.5096 -2406.4 -2512.8 134.923 -15.567 43.5339 -68.4262
263 2 0.806092 29.3216 22.7882 -2223.91 -2308.96 3091.22 -9.19261 24.891 -58.7248
264 2 4.03032 29.3217 25.0696 1604.76 1586.18 -392.26 -19.8726 3.4698 -2.66122
265 2 0 30.7174 0 2480.83 2481.36 -617.926 -0.134915 0.634719 -0.00841278
266 2 3.22449 30.7174 2.28145 -2422.93 -2418.88 3133.5 -16.6913 6.80099 -10.3157
267 2 1.61224 30.7175 4.56002 -2584.75 -2601.16 147.979 1.45719 15.6727 -8.75965
268 2 2.41837 32.1137 0 2481.05 2482.08 -616.026 -0.0115751 1.00225 0.15525
269 2 0.806115 32.1137 2.28146 -2435.26 -2426.95 3110.1 -2.5323 8.30942 -10.5667
270 2 4.03059 32.1137 4.56001 -2573.59 -2568.29 157.72 -6.04867 5.16905 -22.6972
271 2 0 30.7174 6.83856 -2576.52 -2579.75 13.8544 -9.51802 -0.595686 -7.39359
272 2 3.22448 30.7175 9.117 -2571.7 -2596.46 38.3733 -7.54757 7.58158 -12.4565
273 2 1.61223 30.7175 11.3956 -2581.28 -2595.92 11.7787 -17.8999 28.9202 -10.2583
274 2 2.41834 32.1137 6.8385 -2569.45 -2567.2 31.6294 -25.5298 11.2488 -20.6026
275 2 0.806099 32.1137 9.11706 -2582.54 -2567.58 0.160842 -23.5743 25.3027 -9.65446
276 2 4.03056 32.1138 11.3955 -2593.16 -2560.4 57.1082 -29.7035 24.8064 -37.4069
277 2 38.6939 30.7175 13.6741 -2568.18 -2564.32 32.5224 -18.839 13.1442 -47.9979
278 2 3.22444 30.7177 15.9526 -2544.8 -2562.15 43.3949 -30.4307 42.7091 -51.6238
279 2 1.61218 30.7177 18.2311 -2521.06 -2535.03 22.5689 -29.7281 33.2927 -59.7094
280 2 2.41831 32.1138 13.6741 -2576.37 -2560.71 4.17256 -32.8298 28.6662 -29.1938
281 2 0.806045 32.1138 15.9526 -2566.67 -2551.73 12.2749 -31.0705 38.5619 -32.9704
282 2 4.03044 32.1141 18.2311 -2535.63 -2491.57 30.5679 -76.9478 68.5861 -72.1707
283 2 38.6939 30.7177 20.5097 -2526.1 -2520.11 140.804 -22.2772 13.9193 -41.6253
284 2 3.2243 30.7179 22.7882 -2234.78 -2281.23 3080.46 -87.948 35.8224 -67.0866
285 2 1.61212 30.7179 25.0697 1588.77 1586.08 -392.074 -7.01658 1.37422 -0.236843
286 2 2.4182 32.1141 20.5096 -2504.8 -2476.21 121.958 -89.8284 26.3868 -67.0674
287 2 0.805968 32.114 22.7882 -2337.49 -2303.35 3070.29 -55.7899 25.9961 -29.0475
288 2 4.03048 32.1141 25.0697 1579.16 1589.48 -391.187 -10.4465 1.07107 -2.15426
289 2 0 33.5099 0 2480.57 2481.48 -618.334 0.0390371 0.837974 0.120078
290 2 3.22448 33.5099 2.28145 -2432.12 -2422.65 3127.06 -16.9021 9.97811 -12.5664
291 2 1.61222 33.51 4.56002 -2590.62 -2544.66 124.296 -22.4344 15.0337 -23.8379
292 2 2.41837 34.9062 0 2480.92 2482.23 -616.099 -0.00310071 1.38674 0.0524497
293 2 0.806107 34.9062 2.28146 -2428.19 -2419.71 3124.16 -1.09423 12.8599 -5.75407
294 2 4.03059 34.9062 4.56001 -2582.36 -2566.73 142.105 -12.0767 27.7152 -17.07
295 2 38.6939 33.5099 6.83856 -2569.09 -2575.52 26.532 -2.83353 0.970789 -10.4638
296 2 3.22444 33.51 9.11706 -2566.28 -2560.28 34.8679 -31.019 21.0862 -47.3162
297 2 1.61219 33.51 11.3956 -2569.32 -2589.31 34.1193 -20.909 18.5098 -18.5466
298 2 2.41833 34.9062 6.83856 -2580.18 -2573.57 18.3027 -25.21 11.5801 -16.2565
299 2 0.806072 34.9062 9.11706 -2565.24 -2559.69 31.7634 -19.7754 19.3355 -23.4246
300 2 4.03052 34.9063 11.3956 -2572.18 -2520.06 58.1163 -19.7866 40.246 -42.0061
301 2 38.6939 33.51 13.6741 -2568.44 -2560.78 25.102 -28.2282 17.3696 -22.5696
302 2 3.22436 33.5102 15.9526 -2556.61 -2512.93 27.0907 -43.3401 45.1058 -49.7031
303 2 1.61209 33.5102 18.2311 -2537.48 -2505.57 39.8852 -67.2591 44.2117 -42.4444
304 2 2.41826 34.9063 13.6741 -2561.64 -2522.28 45.6688 -46.7226 26.0827 -25.7038
305 2 0.805991 34.9063 15.9526 -2564.49 -2517.81 23.4426 -47.2979 42.6753 -38.421
306 2 4.03044 34.9065 18.2311 -2555.77 -2463.48 49.2005 -78.6311 27.564 -62.3007
307 2 38.6938 33.5102 20.5097 -2527.93 -2515.85 117.051 -62.9993 39.395 -36.718
308 2 3.22432 33.5103 22.7882 -2367.98 -2254.12 3081.43 -78.9033 30.702 -27.1437
309 2 1.61214 33.5103 25.0697 1571.75 1581.65 -393.726 -5.26012 -1.27459 -1.04224
310 2 2.41819 34.9065 20.5096 -2556 -2447.49 94.1014 -66.0358 27.0768 -42.4493
311 2 0.805956 34.9065 22.7882 -2415.67 -2341.38 3072.49 -72.6402 16.294 -20.2553
312 2 4.03056 34.9065 25.0697 1565.31 1588.96 -387.007 -5.08983 1.55846 -0.23172
313 2 0 36.3024 0 2480.86 2481.78 -617.181 0.12896 0.755031 0.310452
314 2 3.22448 36.3024 2.28145 -2426.44 -2421.45 3123.02 -10.5822 10.9297 -11.6594
315 2 1.61221 36.3024 4.56002 -2590.45 -2544.29 124.603 -11.8515 14.8565 4.15554
316 2 2.41837 37.6987 0 2481.09 2482.29 -615.743 0.0139562 1.26363 -0.00533918
317 2 0.806103 37.6987 2.28146 -2426.22 -2421.39 3119.69 0.523602 8.85596 1.49805
318 2 4.03059 37.6987 4.56001 -2589.19 -2544.98 152.635 -16.202 8.87227 -12.7373
319 2 38.6939 36.3024 6.83856 -2578.27 -2576.25 21.1068 -13.5486 7.43457 -10.4133
320 2 3.22443 36.3025 9.11706 -2603.54 -2545.13 15.5563 -11.0623 22.5894 -3.3297
321 2 1.61216 36.3025 11.3956 -2546.09 -2518.33 38.9986 -25.7374 30.8779 -17.0448
322 2 2.41832 37.6987 6.8385 -2597.95 -2549.94 12.7284 -17.3681 16.1997 -16.3953
323 2 0.806057 37.6987 9.11706 -2558.66 -2525.73 46.3507 -23.024 23.5714 -18.5482
324 2 4.03052 37.6988 11.3956 -2563.69 -2493.86 74.0638 -28.847 27.6008 -16.1705
325 2 38.6938 36.3025 13.6741 -2551.44 -2556.3 22.6461 -31.4916 21.413 -4.51667
326 2 3.22435 36.3026 15.9526 -2549.23 -2492.79 32.1582 -63.5232 31.638 -58.0844
327 2 1.61208 36.3026 18.2311 -2551.72 -2492.55 8.87414 -73.1792 45.5271 -47.6325
328 2 2.41825 37.6988 13.6741 -2570.09 -2503.89 26.2376 -40.3501 25.253 -39.4292
329 2 0.805983 37.6988 15.9526 -2578.81 -2497.32 19.6617 -48.7217 41.5283 -32.7457
330 2 4.03048 37.6989 18.2311 -2602.4 -2433.91 -10.1002 -72.6713 37.8973 -59.9446
331 2 38.6938 36.3026 20.5097 -2561.95 -2461.75 135.976 -60.2402 43.9964 -35.5943
332 2 3.22438 36.3027 22.7882 -2448.16 -2264.46 3086.45 -70.0834 17.3697 -47.0026
333 2 1.61217 36.3027 25.0697 1563.05 1578.77 -394.095 -5.94209 -0.184762 -0.670995
334 2 2.41822 37.6989 20.5097 -2582.28 -2468.28 102.214 -67.9179 14.0346 -19.2694
335 2 0.805987 37.6989 22.7882 -2446.09 -2325.73 3099.53 -42.9033 4.48139 -20.1077
336 2 4.03063 37.6989 25.0697 1559.52 1581.19 -394.175 -0.613856 0.466717 0.100105
337 2 0 39.0949 0 2480.91 2481.94 -616.672 0.0138871 0.960633 -0.0166783
338 2 3.22448 39.0949 2.28145 -2437.62 -2421.9 3133.17 -2.71903 12.5684 -7.67235
339 2 1.61221 39.0949 4.56002 -2575.76 -2559.57 154.042 -8.83721 27.5737 -6.34879
340 2 2.41837 40.4912 0 2481.12 2482.28 -615.732 0.00228598 1.29308 0.00192399
341 2 0.806103 40.4912 2.28146 -2425.78 -2420.56 3122.39 0.0956969 10.0297 -0.0741583
342 2 4.03059 40.4912 4.56002 -2578.07 -2546.93 143.8 -14.4025 3.88135 -19.1716
343 2 38.6939 39.0949 6.83856 -2560.49 -2565.52 32.0264 -8.56573 11.2315 -5.67987
344 2 3.22442 39.095 9.11706 -2591.01 -2517.72 0.371117 -17.0369 22.3838 -10.8564
345 2 1.61215 39.095 11.3956 -2550.57 -2489.48 47.8353 -6.38269 34.0841 -13.6761
346 2 2.41832 40.4912 6.8385 -2584.69 -2546.04 11.3354 -11.8745 15.5806 -5.95267
347 2 0.806049 40.4912 9.11706 -2560.12 -2524.22 37.26 -9.36479 31.3824 -6.70992
348 2 4.03052 40.4912 11.3956 -2584.09 -2506.86 63.2025 -17.7124 25.2511 -12.6444
349 2 38.6938 39.095 13.6741 -2564.96 -2538.72 6.94153 -13.9433 16.2755 -11.0627
350 2 3.22436 39.0951 15.9526 -2580.47 -2485.18 14.8303 -41.5441 24.0679 -28.3035
351 2 1.6121 39.0951 18.2311 -2560.08 -2483.01 6.57715 -43.9052 17.5497 -22.8901
352 2 2.41826 40.4912 13.6741 -2567.09 -2510.72 13.1921 -20.2161 20.8462 -20.3169
353 2 0.805991 40.4912 15.9526 -2568.43 -2499.1 12.8857 -25.2081 42.5367 -7.42012
354 2 4.03052 40.4913 18.2311 -2612.5 -2441.32 11.3754 -25.1677 23.5932 -10.697
355 2 38.6938 39.095 20.5097 -2585.05 -2473.5 122.313 -34.6647 46.9177 -23.1043
356 2 3.22442 39.0951 22.7882 -2485.33 -2313.26 3084.22 -23.7172 7.7955 -5.54743
357 2 1.61219 39.0951 25.0697 1559.44 1577.88 -394.433 -1.57413 0.319738 -0.516685
358 2 2.41826 40.4913 20.5097 -2609.88 -2480.36 96.7022 -32.9799 16.7761 -5.26587
359 2 0.806018 40.4913 22.7882 -2476.53 -2336.05 3084.92 -25.0656 8.61716 -12.2549
360 2 4.03063 40.4913 25.0697 1560.5 1577.78 -392.787 -1.78154 -0.808962 -0.29078
361 2 0 41.8874 0 2481.13 2481.93 -616.246 0.0148259 0.655951 -0.0185022
362 2 3.22448 41.8874 2.28145 -2439.02 -2426.51 3120.65 0.0377278 8.26687 0.0595599
363 2 1.61221 41.8874 4.56002 -2585.42 -2566.72 147.825 0.240836 22.9842 0.222242
364 2 2.41837 43.2837 0 2481.11 2482.26 -615.745 0.00973677 1.30479 -0.0176609
365 2 0.806103 43.2837 2.28146 -2424.5 -2417.45 3124.62 -0.025566 8.48361 -0.0950011
366 2 4.03059 43.2837 4.56002 -2594.25 -2584.32 110.174 0.141794 -7.21845 -0.136992
367 2 38.6939 41.8874 6.83856 -2571.7 -2572.8 20.5355 1.60113 7.16351 1.41864
368 2 3.22442 41.8874 9.11706 -2596 -2556.23 12.3999 -9.47296 1.7223 -5.18693
369 2 1.61215 41.8874 11.3956 -2569.11 -2533.53 58.3883 -8.31022 13.2395 -7.42682
370 2 2.41831 43.2837 6.8385 -2592.06 -2569.15 1.96865 0.0839022 11.5399 -0.0676623
371 2 0.806049 43.2837 9.11706 -2571.95 -2547.92 30.6301 0.0093934 26.6608 0.00611628