ITEM: TIMESTEP
0
ITEM: NUMBER OF ATOMS
3074
ITEM: BOX BOUNDS pp pp pp
0.0000000000000000e+00 3.8693948398131120e+01
0.0000000000000000e+00 4.4679925159782847e+01
0.0000000000000000e+00 6.0000000000000000e+01
ITEM: ATOMS id type x y z c_peratom[1] c_peratom[2] c_peratom[3] c_peratom[4] c_peratom[5] c_peratom[6]
1 2 0 0 0 -196895 -196962 48887.1 -2.16826 -57.4783 -10.5758
2 2 3.22448 0 2.28145 37496.9 37237.2 -48095.5 -22.1807 -146.945 -24.217
3 2 1.61221 0 4.56002 39704.2 39308 -2349.3 -27.7189 -386.218 -24.2414
4 2 2.41837 1.39625 0 -196894 -196993 48832.8 -8.81753 -115.359 -16.5643
5 2 0.806103 1.39624 2.28146 37312.2 37150.8 -48123 -30.4595 -173.203 -27.704
6 2 4.03059 1.39623 4.56002 39688.8 39339.2 -2211.65 -130.747 -60.4468 -263.917
7 2 38.6939 0 6.83856 39492.7 39401.1 -390.504 -25.1163 -142.704 -8.23036
8 2 3.22442 0 9.11706 39881.3 39285.1 -272.046 -88.0064 -54.0449 -47.6111
9 2 1.61215 0 11.3956 39429.8 38872.2 -994.6 -90.8708 -237.733 -94.9302
10 2 2.41832 1.39623 6.8385 39745.5 39287.6 -229.571 -122.591 -252.043 -62.9948
11 2 0.806049 1.39623 9.11706 39345 38937.9 -645.074 -117.291 -499.894 -86.1862
12 2 4.03052 1.3962 11.3956 39773 38559.6 -1022.3 -254.302 -404.911 -214.374
13 2 38.6938 0 13.6741 39702.1 39194.7 47.5084 -134.574 -192.813 -89.4828
14 2 3.22438 44.6799 15.9526 39772.3 38078.5 -165.215 -131.702 -315.705 -102.483
15 2 1.61212 44.6799 18.2311 39729.3 38150.3 -142.947 -137.856 -222.841 -118.57
16 2 2.41826 1.39619 13.6741 39453.9 38540.4 -153.601 -324.987 -305.52 -260.788
17 2 0.805991 1.39619 15.9526 39622.1 38419.1 -115.917 -338.763 -627.788 -68.792
18 2 4.03052 1.39615 18.2311 40376 37894.7 -59.0704 -402.339 -325.38 -173.207
19 2 38.6938 44.6799 20.5097 40150.1 38275.9 -1495.53 -108.049 -520.454 119.728
20 2 3.22445 44.6799 22.7882 38469.2 35951.3 -47500.7 -82.6667 -207.731 -33.146
21 2 1.61221 44.6799 25.0697 -195758 -198028 49612.1 -79.1927 -37.5867 -50.0211
22 2 2.41826 1.39616 20.5097 40175.5 38076.2 -1467.75 -483.477 -238.598 -158.995
23 2 0.806018 1.39617 22.7882 38134.8 36213.7 -47471.6 -421.283 -120.015 -138.072
24 2 4.03063 1.39616 25.0697 -195730 -198242 49304.8 -82.5007 85.52 8.52207
25 2 0 2.7925 0 -196878 -196962 48920.8 -9.53848 -81.7754 -30.066
26 2 3.22448 2.79249 2.28145 37491.3 37308.5 -48147.3 -71.6356 -159.445 -116.369
27 2 1.61221 2.79248 4.56002 39736.6 39448 -2274 -98.5853 -390.809 -78.1132
28 2 2.41837 4.18874 0 -196886 -196975 48893.3 -7.68489 -88.3641 -18.3184
29 2 0.806103 4.18873 2.28146 37399 37357.9 -47988.9 -22.5218 -118.639 -2.97699
30 2 4.03059 4.18871 4.56001 39819.8 39290.4 -2355.86 -164.082 -131.797 -159.097
31 2 38.6939 2.79248 6.83856 39518.1 39545 -397.418 -125.016 -139.027 -68.7668
32 2 3.22442 2.79245 9.11706 40040.6 39297.3 110.95 -202.439 -290.941 -177.524
33 2 1.61215 2.79245 11.3956 39415.9 38856.6 -635.384 -127.063 -476.709 -227.149
34 2 2.41832 4.18871 6.8385 40019.6 39498.2 4.04868 -173.164 -169.923 -125.694
35 2 0.806057 4.18871 9.11706 39609.7 39192.1 -496.332 -191.768 -276.818 -171.738
36 2 4.03052 4.18865 11.3956 39635.2 38543.7 -932.654 -563.845 -350.487 -369.883
37 2 38.6938 2.79245 13.6741 39442.4 39085.8 9.70803 -194.712 -197.018 -195.864
38 2 3.22436 2.79238 15.9526 39702.1 38273.4 -116.71 -583.159 -331.269 -370.361
39 2 1.6121 2.79238 18.2311 39531.3 38240 -133.465 -629.748 -281.324 -331.14
40 2 2.41825 4.18864 13.6741 39612.3 38674.9 -295.557 -671.135 -346.793 -653.866
41 2 0.805983 4.18864 15.9526 39578.7 38460.8 -387.06 -699.197 -665.319 -456.408
42 2 4.03048 4.18854 18.2311 40047.3 37983.1 42.1289 -1031.03 -622.895 -932.075
43 2 38.6938 2.7924 20.5097 39800.9 38082.9 -1834.67 -575.657 -704.879 -270.429
44 2 3.22442 2.79235 22.7882 38328.6 35617.2 -47580.8 -451.891 -162.284 -75.774
45 2 1.61219 2.79238 25.0697 -195887 -198234 49591.9 -219.55 -29.011 -75.9704
46 2 2.41822 4.18856 20.5097 39701.3 37938.2 -1626.47 -1017.85 -212.404 -379.176
47 2 0.805987 4.18859 22.7882 37652.3 36113.9 -47769.5 -693.948 -70.5072 -264.127
48 2 4.03063 4.18856 25.0697 -195791 -198672 49571.5 -271.392 -37.9744 12.4207
49 2 0 5.58499 0 -196868 -196933 49008.6 3.60573 -48.7979 5.78504
50 2 3.22448 5.58499 2.28145 37461 37391.4 -48138.4 -175.259 -183.086 -147.387
51 2 1.61221 5.58499 4.56002 39837.8 39270.1 -1945.49 -117.461 -233.925 108.33
52 2 2.41837 6.98124 0 -196880 -196983 48888.1 -1.88527 -109.961 6.70967
53 2 0.806107 6.98124 2.28146 37387 37348.8 -48107 -18.5711 -196.464 -86.3809
54 2 4.03059 6.98119 4.56001 39720.2 39335.6 -2212.96 -168.471 -406.28 -284.918
55 2 38.6939 5.58499 6.83856 39605.9 39750.5 -346.569 -162.972 -116.024 -111.197
56 2 3.22443 5.58495 9.11706 39948.8 39115.6 -279.117 -183.857 -362.917 -84.2882
57 2 1.61216 5.58495 11.3956 39102.5 38768.1 -616.648 -455.568 -481.192 -308.1
58 2 2.41833 6.98119 6.83856 39687.7 39409 -435.625 -352.894 -239.897 -159.517
59 2 0.806072 6.98119 9.11706 39275 39158.5 -649.051 -157.86 -355.68 -277.948
60 2 4.03052 6.9811 11.3956 39395.2 38708.1 -904.408 -418.608 -612.168 -628.657
61 2 38.6938 5.58495 13.6741 39380.8 39362.3 -380.505 -474.884 -340.753 -127.051
62 2 3.22435 5.58481 15.9526 39288.5 38214.4 -391.953 -909.592 -440.628 -727.377
63 2 1.61208 5.58481 18.2311 39362.6 38170.7 -70.8621 -979.826 -679.713 -725.779
64 2 2.41826 6.9811 13.6741 39579.5 38903.3 -864.503 -656.891 -456.315 -488.847
65 2 0.805991 6.9811 15.9526 39459.3 38834.5 -360.877 -724.294 -654.32 -593.313
66 2 4.03044 6.98097 18.2311 39165.2 37667 -601.064 -1075.91 -364.704 -861.749
67 2 38.6938 5.58481 20.5097 39399 38001.6 -2003.74 -937.967 -654.489 -402.27
68 2 3.22438 5.58472 22.7882 38037.1 35139.5 -47463.2 -1073.87 -242.496 -712.611
69 2 1.61217 5.58477 25.0697 -196253 -198500 49594.8 -955.585 54.2989 -228.944
70 2 2.41819 6.98097 20.5096 39498 37827.5 -1439.83 -913.544 -436.663 -647.974
71 2 0.805956 6.98101 22.7882 37214.5 35814.3 -47317.4 -1086.31 -244.331 -332.339
72 2 4.03056 6.98093 25.0697 -196586 -199541 48773.8 -641.018 -309.075 -24.9563
73 2 0 8.37749 0 -196849 -196921 49068.5 3.13317 -66.534 9.63743
74 2 3.22448 8.37749 2.28145 37448.7 37302.4 -48150.2 -260.24 -154.034 -194.092
75 2 1.61222 8.37744 4.56002 39906.7 39284.8 -1576.13 -267.835 -110.811 -149.076
76 2 2.41837 9.77373 0 -196889 -196969 48884.6 -0.88678 -80.9578 12.3489
77 2 0.806115 9.77373 2.28146 37497 37369.1 -47889.3 -39.005 -128.437 -162.707
78 2 4.03059 9.77369 4.56001 39760 39521 -2116.87 -94.4274 -301.633 -347.254
79 2 38.6939 8.37749 6.83856 39504.8 39618.7 -415.733 -30.3642 -20.6583 -168.438
80 2 3.22444 8.3774 9.11706 39656.7 38873.8 -861.601 -305.365 -452.782 -521.885
81 2 1.61219 8.3774 11.3956 39542.8 39386.4 -501.759 -329.154 -292.691 -277.106
82 2 2.41834 9.77369 6.83856 39544.8 39502.6 -470.712 -390.581 -183.959 -316.586
83 2 0.806096 9.77369 9.11706 39563.3 39511.1 -345.84 -363.196 -143.434 -148.333
84 2 4.03056 9.7736 11.3955 39901.5 39399.2 -878.43 -390.382 -382.558 -381.253
85 2 38.6939 8.37744 13.6741 39526.8 39415.5 -375.01 -442.972 -275.341 -335.356
86 2 3.22436 8.37726 15.9526 39313.1 38597.2 -588.09 -642.94 -742.644 -654.662
87 2 1.61209 8.37726 18.2311 38865.7 38496.4 -614.024 -931.631 -680.472 -651.029
88 2 2.41831 9.7736 13.6741 39652 39395.2 -74.7082 -296.35 -432.892 -460.931
89 2 0.806045 9.7736 15.9526 39495.2 39738.1 -184.346 -478.352 -591.71 -508.085
90 2 4.03044 9.77338 18.2311 38996.3 37809.7 -630.802 -1150.33 -1112.55 -1014.93
91 2 38.6938 8.37726 20.5097 38876 38655.7 -1962.68 -935.553 -664.011 -469.203
92 2 3.22432 8.37708 22.7882 36545.2 34739.1 -47445.3 -1471.64 -473.007 -415.805
93 2 1.61214 8.37717 25.0697 -197507 -198796 49329.8 -896.153 93.4724 -225.718
94 2 2.4182 9.77338 20.5096 38381.7 38075.7 -1846.71 -1286.8 -419.866 -1036.64
95 2 0.805968 9.77342 22.7882 36022.5 35014.6 -47260.9 -865.236 -408.158 -463.54
96 2 4.03048 9.77329 25.0697 -198440 -199276 49143.8 -1310.4 -134.451 -282.348
97 2 0 11.17 0 -196869 -196911 49036.2 -10.7001 -50.3812 -0.65944
98 2 3.22449 11.17 2.28145 37307.1 37244.6 -48249.3 -257.112 -104.772 -158.195
99 2 1.61224 11.1699 4.56002 39817.3 40157.5 -1932.86 -53.699 -118.087 -348.089
100 2 2.41837 12.5662 0 -196914 -196957 48831.5 -9.81716 -34.036 0.546809
101 2 0.806123 12.5662 2.28146 37259.3 37379.5 -47985.4 139.664 62.2269 -114.265
102 2 4.03063 12.5662 4.55999 39706.2 39537.8 -2630.32 -46.2295 -70.1516 -425.026
103 2 0 11.17 6.83856 39644.5 39689.9 -229.163 -146.339 0.557434 -111.805
104 2 3.22448 11.1699 9.117 39401.5 39782.8 -934.514 -91.0246 -239.332 -404.789
105 2 1.61223 11.1699 11.3956 39724.5 39952.2 -158.707 -272.909 -443.541 -156.464
106 2 2.41838 12.5662 6.8385 39598.3 39570.1 -220.098 -122.468 -152.15 -118.049
107 2 0.806138 12.5662 9.11706 40041 40197.5 -402.094 -152.744 -188.287 -424.077
108 2 4.03063 12.5661 11.3955 39721.8 39890.3 -415.967 -320.555 -357.319 -393.598
109 2 38.6939 11.1699 13.6741 39538 39515.3 -339.92 -255.936 -145.525 -642.832
110 2 3.22444 11.1698 15.9526 39342.3 39493.9 -656.746 -579.635 -665.164 -780.913
111 2 1.61218 11.1698 18.2311 38815 39064.6 -182.605 -491.572 -458.223 -1014.83
112 2 2.41839 12.5661 13.6741 39279.3 39905.9 -379.589 -250.929 -18.1522 -671.793
113 2 0.806161 12.5661 15.9526 39532.3 39973.6 -545.307 -39.487 -104.503 -580.548
114 2 4.03056 12.5659 18.231 38080.6 39201.9 -986.593 -639.125 -875.199 -1145.99
115 2 38.6939 11.1698 20.5097 38870.9 38779.3 -2165.84 -342.75 -214.664 -641.695
116 2 3.2243 11.1695 22.7882 34428.5 35180 -47271.4 -1320.11 -496.321 -938.451
117 2 1.61212 11.1696 25.0697 -199643 -198833 49267.5 -881.135 -172.325 -30.0107
118 2 2.41832 12.5659 20.5096 37044.1 38673.9 -2068.6 -242.513 -667.384 -1057.79
119 2 0.806092 12.5658 22.7882 34267.2 35622.6 -47421 -97.1529 -333.923 -820.246
120 2 4.03032 12.5657 25.0696 -201460 -198777 49288.1 -2510.37 -435.752 -170.794
121 2 0 13.9625 0 -196987 -196925 48756.7 -17.364 81.1248 -8.91039
122 2 3.2245 13.9625 2.28145 37033.7 37171.6 -48536.1 -254.742 -14.8123 -223.344
123 2 1.61226 13.9625 4.56001 39632.5 40131.3 -2425.59 -299.535 99.6487 -110.473
124 2 2.41837 15.3587 0 -196978 -196966 48661.3 -17.482 38.7685 -14.1344
125 2 0.806138 15.3587 2.28145 37088.1 37279.5 -48388 23.9988 44.2719 -23.1699
126 2 4.03063 15.3587 4.55998 39350.9 39852.6 -2955.01 -155.321 -76.9318 -73.4561
127 2 2.82679e-05 13.9625 6.8385 39712.9 39847.4 -373.737 -32.94 237.886 -249.725
128 2 3.22453 13.9624 9.117 39597.1 40025 -751.735 75.0518 -27.9057 -261.273
129 2 1.61231 13.9624 11.3955 39631.4 39662.3 -476.94 -111.261 3.87234 -619.622
130 2 2.41842 15.3587 6.8385 39402.1 39994.7 -1021.27 98.818 85.5155 -290.49
131 2 0.806204 15.3587 9.117 39628.1 40283.5 -798.173 170.361 326.328 -314.513
132 2 4.03071 15.3586 11.3954 39113.3 40231 -1174.11 267.584 33.3292 -471.543
133 2 9.72646e-05 13.9624 13.6741 39857.8 39868.7 -407.571 236.73 24.1618 -179.54
134 2 3.22459 13.9623 15.9525 38562.6 40016.9 -511.11 -39.4079 -89.7756 -832.968
135 2 1.61238 13.9623 18.2311 37773.8 39340.4 -856.418 603.787 91.5076 -608.121
136 2 2.41854 15.3586 13.6739 38824.8 40380.2 -907.7 394.934 292.085 -531.48
137 2 0.80637 15.3586 15.9525 38193.3 39983.3 -985.33 516.876 716.169 -1050.27
138 2 4.03075 15.3585 18.2309 36933.9 39951.8 -618.461 246.152 -344.019 -1111.45
139 2 0.000178521 13.9622 20.5096 37348.1 39108.3 -1470.92 960.124 348.723 -1042.51
140 2 3.22436 13.962 22.7881 32187.2 36131.2 -47602 -804.582 -780.615 -817.648
141 2 1.61212 13.9621 25.0697 -202681 -198268 49264 -630.489 -255.44 -167.528
142 2 2.41855 15.3584 20.5095 35480.1 39598 -2183.85 475.422 -24.9466 -1236.42
143 2 0.80632 15.3584 22.7881 31611.5 36935.7 -47294 1030.47 8.33948 -758.539
144 2 4.03017 15.3583 25.0696 -205555 -198169 49412.6 -2420.83 -472.552 -364.412
145 2 0 16.755 0 -197048 -196940 48581.8 -15.735 114.616 -20.6696
146 2 3.22451 16.755 2.28143 37180.5 37287.2 -48773.8 33.7913 156.915 -110.299
147 2 1.61229 16.755 4.55998 39586.6 39769.6 -2738.05 76.9305 363.588 -230.235
148 2 2.41837 18.1512 0 -197059 -196984 48462.5 -15.9148 72.4273 -18.6524
149 2 0.80615 18.1512 2.28143 37048.4 37294.1 -48950.7 10.3433 250.586 -33.5668
150 2 4.03067 18.1512 4.55995 39231.9 39901.7 -3253.6 -1.1477 178.525 -298.834
151 2 7.25976e-05 16.755 6.83844 39773.6 39914.2 -998.214 103.706 371.723 -124.983
152 2 3.22461 16.7549 9.11694 39159.7 39993.1 -1221.36 -77.7951 285.717 -309.214
153 2 1.61243 16.7549 11.3954 38760.5 40041.5 -1744.13 326.114 666.094 -241.353
154 2 2.41847 18.1512 6.83844 39351.1 40061.6 -1426.74 -90.1569 257.568 -237.299
155 2 0.806277 18.1512 9.11694 39310.1 39914.9 -1324.13 309.55 703.032 -31.6415
156 2 4.03083 18.1512 11.3954 38567.3 40383.8 -1465.31 62.8013 768.192 -440.203
157 2 0.000272864 16.7549 13.6739 38949.2 40501 -1799.67 567.65 1222.38 -629.973
158 2 3.22479 16.7548 15.9524 37201 40285.2 -1560.68 346.754 804.555 -633.823
159 2 1.61266 16.7548 18.2309 35683.6 40511.2 -1064.27 943.886 1106.91 -887.94
160 2 2.4187 18.1512 13.6739 37874.5 40373.6 -1866.68 355.224 1208.16 -225.945
161 2 0.806618 18.1512 15.9523 36785.6 40665.6 -1290.39 962.625 2107.85 -288.74
162 2 4.03094 18.151 18.2308 35592.4 40736 -753.072 340.179 517.045 -599.673
163 2 0.000544691 16.7547 20.5094 33984.7 40079.1 -1989.71 1983.89 1246.93 -860.85
164 2 3.22447 16.7546 22.788 30436.9 37452.2 -47683.8 -109.03 -674.611 -854.305
165 2 1.61214 16.7547 25.0696 -205258 -197504 49502.6 -362.716 -406.313 -351.407
166 2 2.41878 18.151 20.5094 33540.2 40468.2 -2228.7 781.42 568.624 -391.514
167 2 0.806544 18.151 22.7879 29049.6 37732.7 -47862.2 1036.38 454.833 -507.85
168 2 4.03005 18.151 25.0695 -208167 -197055 49804.3 -1617.78 -823.813 -166.578
169 2 0 19.5475 0 -197094 -196971 48419 -14.0056 123.712 -29.7086
170 2 3.22453 19.5475 2.28142 36973.1 37184.1 -49291.6 9.50902 201.16 -31.0739
171 2 1.61231 19.5475 4.55996 39379.2 39638 -3024.86 -10.8556 298.304 7.89447
172 2 2.41837 20.9437 0 -197112 -197000 48321.2 -0.303714 127.682 0.688647
173 2 0.806157 20.9437 2.28142 37072.4 37302.5 -49131.6 -0.282306 288.38 0.00562221
174 2 4.03067 20.9437 4.55994 39120.6 39276.4 -3718.72 0.366514 36.9167 0.0809294
175 2 0.000112 19.5475 6.83844 39115 39786.7 -1960.11 112.069 818.521 -178.978
176 2 3.22466 19.5475 9.11688 38720.4 39815.9 -1924.64 84.4312 440.302 -185.649
177 2 1.61252 19.5475 11.3954 38405.9 40192.9 -2236.6 6.67201 1235.65 -293.582
178 2 2.41849 20.9437 6.83844 38649.8 39337.4 -2149.69 0.844976 449.821 0.627673
179 2 0.806316 20.9437 9.11688 38584.5 39670.3 -2456.13 -0.20716 1113 0.434053
180 2 4.03086 20.9437 11.3953 38072.3 40241.2 -1716.43 -0.094468 796.624 0.046443
181 2 0.00043237 19.5475 13.6738 37706.5 40549.5 -2765.74 364.403 2267.55 -410.962
182 2 3.22494 19.5474 15.9523 35866.5 40542.5 -1692.69 375.058 1337.95 -227.01
183 2 1.61287 19.5474 18.2308 34014.6 41159.6 -1512.32 605.328 1920.98 -314.603
184 2 2.41877 20.9437 13.6738 36927.7 40156 -2227.81 1.67645 1329.98 0.044722
185 2 0.80673 20.9437 15.9523 35339.7 40460.6 -1832.04 35.8043 2759.21 101.105
186 2 4.03102 20.9437 18.2308 34451.7 41394 -1064.66 15.4082 867.93 0.00121299
187 2 0.000826623 19.5474 20.5093 30575.3 40608 -3040.1 851.228 2493.69 -357.615
188 2 3.22456 19.5473 22.7879 29494 38301.7 -47747.6 94.46 -526.126 -490.342
189 2 1.61216 19.5473 25.0694 -207141 -196408 49244.1 -42.3274 -367.599 -129.828
190 2 2.41887 20.9437 20.5093 32553.3 40577.1 -2760.04 -30.4671 898.451 -90.7866
191 2 0.806641 20.9437 22.7879 28051.8 38277.2 -48155 0.370509 717.526 0.524549
192 2 4.03001 20.9437 25.0694 -209000 -196628 49274.4 -0.0551423 -929.625 0.0141998
193 2 0 22.34 0 -197093 -196968 48427 15.6069 126.281 34.5586
194 2 3.22453 22.34 2.28142 36946.7 37175.1 -49291.5 5.92344 201.264 31.1227
195 2 1.61231 22.34 4.55996 39377.9 39635.1 -3033.98 12.4399 296.552 -2.81532
196 2 2.41837 23.7362 0 -197067 -196984 48446.7 15.9158 83.4352 18.6544
197 2 0.806154 23.7362 2.28143 37048.5 37294 -48950.7 -10.3178 250.469 33.557
198 2 4.03067 23.7362 4.55995 39258.6 39902.5 -3244.14 0.852495 193.922 299.543
199 2 0.000112283 22.34 6.83844 39113.4 39789.8 -1952.87 -110.575 819.637 183.907
200 2 3.22466 22.34 9.11688 38693.5 39807.7 -1923.91 -69.9017 440.268 186.393
201 2 1.61252 22.34 11.3954 38404.8 40189.2 -2246.89 -6.05495 1234.34 299.523
202 2 2.41847 23.7362 6.83844 39337.2 40062.2 -1434.7 93.3698 270.992 242.212
203 2 0.806281 23.7362 9.11694 39337.7 39925.3 -1318.4 -292.89 704.831 37.8402
204 2 4.03083 23.7363 11.3954 38541.6 40371.8 -1472.59 -45.8034 767.362 445.092
205 2 0.000432792 22.34 13.6738 37706.9 40548.7 -2765.87 -365.048 2263.94 413.678
206 2 3.22494 22.34 15.9523 35865 40555.3 -1697.09 -362.965 1341.52 215.246
207 2 1.61288 22.3401 18.2308 34014 40687.9 -1514 -605.838 1922.17 314.836
208 2 2.4187 23.7363 13.6739 37863.3 40366.9 -1874.11 -350.866 1205.82 230.809
209 2 0.806618 23.7363 15.9523 36743.2 40613.4 -1445.21 -928.668 2041.25 384.797
210 2 4.03094 23.7364 18.2308 35181.4 40605.7 -752.986 -340.192 517.115 599.726
211 2 0.000827013 22.3401 20.5093 30768.5 40678.2 -3012.73 -962.901 2474.63 373.717
212 2 3.22456 22.3401 22.7879 29494.1 38301 -47747.5 -94.6142 -526.117 489.568
213 2 1.61216 22.3401 25.0694 -207141 -196409 49244.1 41.7017 -367.62 129.823
214 2 2.41878 23.7364 20.5094 33509.3 40402.5 -2404.96 -812.788 506.525 296.151
215 2 0.806544 23.7364 22.7879 29049.1 37731.1 -47865 -1039.25 453.169 506.485
216 2 4.03005 23.7365 25.0695 -208168 -196584 49804.3 1617.97 -823.707 166.624
217 2 0 25.1325 0 -197047 -196937 48589.7 14.1478 117.21 15.8101
218 2 3.22451 25.1325 2.28143 37154.2 37278.3 -48773.6 -49.2252 157.03 110.263
219 2 1.61229 25.1325 4.55998 39585.2 39769.9 -2741.01 -77.0179 365.712 230.349
220 2 2.41837 26.5287 0 -196978 -196965 48661.9 17.7898 38.5236 13.4473
221 2 0.806138 26.5287 2.28145 37088.1 37279.6 -48388 -23.7305 44.2845 23.1779
222 2 4.03063 26.5288 4.55998 39343.6 39853 -2971.02 154.895 -65.6634 73.4108
223 2 7.33502e-05 25.1325 6.83844 39799.5 39926.2 -991.121 -90.2252 372.477 120.172
224 2 3.22461 25.1325 9.11694 39124.3 39981.1 -1245.11 63.9556 294.634 314.064
225 2 1.61243 25.1325 11.3954 38766 40038.1 -1741.13 -327.877 655.583 237.135
226 2 2.41842 26.5288 6.8385 39392.1 39998.4 -1004.08 -97.9657 90.1366 290.426
227 2 0.806204 26.5287 9.117 39690.2 40303 -777.593 -171.84 316.576 309.816
228 2 4.03071 26.5288 11.3954 39085 40215.1 -1190.56 -283.178 28.1837 471.071
229 2 0.000273969 25.1325 13.6739 38957.4 40500.5 -1783.44 -567.713 1207.47 627.199
230 2 3.22479 25.1326 15.9524 37199.6 40299.1 -1563.69 -337.959 807.882 621.545
231 2 1.61266 25.1326 18.2309 35682.2 40039.6 -1068.51 -943.944 1109.39 888.565
232 2 2.41854 26.5288 13.6739 38800.9 40358.1 -926.861 -387.32 297.532 514.436
233 2 0.80637 26.5288 15.9525 38194.3 40459.9 -974.055 -517.197 719.703 1050.09
234 2 4.03075 26.529 18.2309 36881.5 39935.1 -618.68 -245.996 -344.211 1111.64
235 2 0.000545705 25.1327 20.5094 33818.4 40033.4 -1963.55 -2093.71 1228.05 873.059
236 2 3.22447 25.1328 22.788 30451.5 37495.6 -47536.1 150.751 -610.657 936.707
237 2 1.61214 25.1328 25.0696 -205078 -196976 49502.7 463.024 -406.277 351.424
238 2 2.41855 26.529 20.5095 35463.5 39587.6 -2200.49 -474.319 -30.2272 1237.25
239 2 0.80632 26.5291 22.7881 31631.6 36990.4 -47139.7 -994.273 62.2372 855.19
240 2 4.03017 26.5292 25.0696 -205376 -197641 49412.5 2407.23 -472.582 527.921
241 2 0 27.925 0 -196987 -196925 48756.6 17.351 81.1332 8.92102
242 2 3.2245 27.925 2.28145 37033.7 37171.8 -48535.9 254.719 -14.8631 223.418
243 2 1.61226 27.925 4.56001 39631.4 40135.2 -2421.59 298.121 105.042 105.589
244 2 2.41837 29.3212 0 -196914 -196957 48831.5 9.85525 -34.0222 -0.527125
245 2 0.806123 29.3212 2.28146 37259.4 37379.7 -47984.9 -139.544 62.4031 114.578
246 2 4.03063 29.3212 4.55999 39711.9 39555.4 -2622.91 34.7442 -76.7693 437.787
247 2 2.92422e-05 27.925 6.8385 39738.8 39859.4 -366.639 19.4293 238.517 254.232
248 2 3.22454 27.925 9.117 39569.9 40012.5 -759.092 -61.0036 -30.5966 255.643
249 2 1.61231 27.925 11.3955 39635.1 39658.9 -475.649 113.168 -5.90117 623.95
250 2 2.41838 29.3212 6.8385 39584.6 39571.6 -227.775 116.761 -138.939 117.706
251 2 0.806142 29.3212 9.11706 40061 40186.3 -412.418 126.362 -181.613 434.462
252 2 4.03063 29.3213 11.3955 39736.4 39930.7 -274.46 343.883 -293.949 496.363
253 2 9.86568e-05 27.925 13.6741 39877.6 39924.9 -247.832 -202.647 81.319 274.735
254 2 3.22459 27.9251 15.9525 38729.3 40061.8 -537.422 -69.8129 -70.3923 844.349
255 2 1.61238 27.9252 18.2311 37791.5 39398.5 -700.945 -637.357 151.644 512.476
256 2 2.41839 29.3213 13.6741 39440.3 39955.9 -379.645 352.527 -18.1164 669.196
257 2 0.806161 29.3213 15.9526 39532.2 39974.6 -542.853 37.7804 -103.423 575.423
258 2 4.03056 29.3216 18.231 38054.1 39191.7 -987.369 621.033 -875.15 1143.81
259 2 0.000179755 27.9252 20.5096 37356.1 39108.2 -1455.82 -959.154 337.879 1041.84
260 2 3.22436 27.9254 22.7881 32187.8 36131 -47601.7 873.376 -780.187 1005.01
261 2 1.61212 27.9254 25.0697 -202681 -198268 49264 920.625 -255.464 331.08
262 2 2.41832 29.3216 20.5096 37027.6 38664.7 -2076.05 239.529 -669.858 1052.88
263 2 0.806092 29.3216 22.7882 34241.5 35551 -47595.3 141.538 -383.246 904.183
264 2 4.03032 29.3217 25.0696 -201640 -199306 49288 2497.03 -435.99 334.389
265 2 0 30.7174 0 -196869 -196911 49036.2 10.706 -50.3684 0.667822
266 2 3.22449 30.7174 2.28145 37307.1 37244.7 -48248.1 257.005 -104.719 158.837
267 2 1.61224 30.7175 4.56002 39773.3 40025.7 -2277.02 -22.4227 -241.165 134.791
268 2 2.41837 32.1137 0 -196886 -196968 48885.5 0.918981 -79.5348 -12.32
269 2 0.806115 32.1137 2.28146 37497.2 37369.2 -47888.1 38.9913 -127.945 162.703
270 2 4.03059 32.1137 4.56001 39601.2 39519.7 -2426.89 93.074 -79.5392 349.254
271 2 0 30.7174 6.83856 39646.1 39695.8 -213.159 146.458 9.16553 113.769
272 2 3.22448 30.7175 9.117 39571.8 39952.8 -590.445 116.137 -116.66 191.674
273 2 1.61223 30.7175 11.3956 39719.6 39944.8 -181.225 275.434 -445.01 157.849
274 2 2.41834 32.1137 6.8385 39537.2 39502.5 -486.666 392.836 -173.089 317.021
275 2 0.806099 32.1137 9.11706 39738.8 39508.6 -2.4527 362.749 -389.345 148.558
276 2 4.03056 32.1138 11.3955 39901.9 39397.9 -878.725 457.059 -381.706 575.595
277 2 38.6939 30.7175 13.6741 39517.6 39458.1 -500.408 289.883 -202.255 738.562
278 2 3.22444 30.7177 15.9526 39157.6 39424.5 -667.697 468.245 -657.175 794.349
279 2 1.61218 30.7177 18.2311 38792.1 39007.1 -347.239 457.433 -512.283 918.76
280 2 2.41831 32.1138 13.6741 39643.7 39402.7 -64.1834 505.167 -441.1 449.218
281 2 0.806045 32.1138 15.9526 39494.3 39264.5 -188.854 478.094 -593.367 507.327
282 2 4.03044 32.1141 18.2311 39016.1 38338.2 -470.32 1184 -1055.34 1110.5
283 2 38.6939 30.7177 20.5097 38870 38777.8 -2166.58 342.787 -214.18 640.503
284 2 3.2243 30.7179 22.7882 34408.7 35123.9 -47429.7 1354.13 -551.555 1032.93
285 2 1.61212 30.7179 25.0697 -199643 -199305 49267.7 881.696 -172.683 29.7622
286 2 2.4182 32.1141 20.5096 38542 38102.1 -1876.56 1382.21 -406.02 1031.98
287 2 0.805968 32.114 22.7882 35990.9 35465.2 -47273.9 859.01 -400.268 447.252
288 2 4.03048 32.1141 25.0697 -198438 -199735 49156.8 1312.71 -134.594 270.708
289 2 0 33.5099 0 -196848 -196921 49068.6 -3.098 -66.498 -9.52886
290 2 3.22448 33.5099 2.28145 37448.7 37302.9 -48149.1 260.251 -153.639 193.491
291 2 1.61222 33.51 4.56002 39863.4 39156.1 -1912.59 345.211 -231.333 366.808
292 2 2.41837 34.9062 0 -196876 -196980 48891.2 0.245929 -110.047 -4.16229
293 2 0.806107 34.9062 2.28146 37388.3 37257.6 -48104.4 16.8484 -198.01 88.5986
294 2 4.03059 34.9062 4.56001 39736.2 39495.7 -2186.62 185.832 -426.47 262.666
295 2 38.6939 33.5099 6.83856 39531.6 39630.6 -408.23 43.601 -14.9384 161.011
296 2 3.22444 33.51 9.11706 39488.3 39395.9 -536.501 477.301 -324.46 728.07
297 2 1.61219 33.51 11.3956 39535.3 39842.8 -524.984 321.735 -284.818 285.384
298 2 2.41833 34.9062 6.83856 39702.4 39600.8 -281.602 387.918 -178.189 250.146
299 2 0.806072 34.9062 9.11706 39472.3 39387 -488.731 304.291 -297.522 360.444
300 2 4.03052 34.9063 11.3956 39578.7 38776.8 -894.224 304.46 -619.274 646.358
301 2 38.6939 33.51 13.6741 39521.7 39403.8 -386.227 434.357 -267.272 347.287
302 2 3.22436 33.5102 15.9526 39339.2 38667.2 -416.828 666.885 -694.055 764.795
303 2 1.61209 33.5102 18.2311 39044.7 38553.6 -613.692 1034.93 -680.294 653.099
304 2 2.41826 34.9063 13.6741 39416.6 38810.9 -702.694 718.932 -401.34 395.51
305 2 0.805991 34.9063 15.9526 39460.6 38742.3 -360.695 727.786 -656.657 591.194
306 2 4.03044 34.9065 18.2311 39326 37905.8 -757.023 1209.9 -424.13 958.627
307 2 38.6938 33.5102 20.5097 38898.4 38712.4 -1801.08 969.397 -606.188 564.995
308 2 3.22432 33.5103 22.7882 36460.2 34707 -47445.3 1214.89 -472.724 417.936
309 2 1.61214 33.5103 25.0697 -197494 -198739 49472.6 660.946 160.156 130.96
310 2 2.41819 34.9065 20.5096 39330 37660.5 -1447.94 1016.12 -416.64 653.183
311 2 0.805956 34.9065 22.7882 37195.1 36051.2 -47308.5 1118.47 -250.887 311.881
312 2 4.03056 34.9065 25.0697 -196661 -199632 48622.5 639.468 -195.801 29.113
313 2 0 36.3024 0 -196872 -196944 48977.1 -10.2335 -59.9161 -24.6364
314 2 3.22448 36.3024 2.28145 37361.3 37284.4 -48086.9 162.94 -168.29 179.526
315 2 1.61221 36.3024 4.56002 39860.8 39150.6 -1917.3 182.366 -228.605 -63.9442
316 2 2.41837 37.6987 0 -196889 -196985 48863 -1.10827 -100.277 0.423467
317 2 0.806103 37.6987 2.28146 37357.9 37283.5 -48035.6 -8.06218 -136.36 -23.0669
318 2 4.03059 37.6987 4.56001 39841.2 39160.9 -2348.64 249.309 -136.523 195.995
319 2 38.6939 36.3024 6.83856 39673.1 39641.9 -324.749 208.478 -114.399 160.235
320 2 3.22443 36.3025 9.11706 40061.8 39163 -239.346 170.221 -347.592 51.2359
321 2 1.61216 36.3025 11.3956 39177.2 38750.2 -600.056 396.027 -475.125 262.272
322 2 2.41832 37.6987 6.8385 39975.8 39237.1 -195.829 267.25 -249.271 252.282
323 2 0.806057 37.6987 9.11706 39370.7 38864.1 -713.185 354.277 -362.699 285.406
324 2 4.03052 37.6988 11.3956 39447.9 38373.4 -1139.6 443.872 -424.697 248.818
325 2 38.6938 36.3025 13.6741 39259.9 39334.7 -348.439 484.572 -329.488 69.4995
326 2 3.22435 36.3026 15.9526 39225.5 38357.1 -494.804 977.444 -486.82 893.755
327 2 1.61208 36.3026 18.2311 39264 38353.5 -136.525 1126.03 -700.536 732.932
328 2 2.41825 37.6988 13.6741 39546.6 38528 -403.699 620.876 -388.574 606.707
329 2 0.805983 37.6988 15.9526 39680.9 38427 -302.517 749.693 -639.007 503.868
330 2 4.03048 37.6989 18.2311 40043.8 37451.3 155.438 1118.21 -583.137 922.383
331 2 38.6938 36.3026 20.5097 39421.6 37879.8 -2092.28 926.936 -676.988 547.702
332 2 3.22438 36.3027 22.7882 37695.2 34866.8 -47523.2 1079.1 -267.447 723.716
333 2 1.61217 36.3027 25.0697 -196403 -198379 49519.8 746.651 23.2163 84.3134
334 2 2.41822 37.6989 20.5097 39734.8 37980.5 -1572.79 1045.08 -215.957 296.507
335 2 0.805987 37.6989 22.7882 37663.6 35810.3 -47724.8 660.602 -69.0021 309.607
336 2 4.03063 37.6989 25.0697 -195969 -198692 49532 77.1367 -58.6471 -12.5794
337 2 0 39.0949 0 -196876 -196957 48936.7 -1.10139 -76.232 1.32317
338 2 3.22448 39.0949 2.28145 37533.3 37291.3 -48243.2 41.8662 -193.523 118.135
339 2 1.61221 39.0949 4.56002 39634.5 39385.5 -2370.3 135.983 -424.29 97.6911
340 2 2.41837 40.4912 0 -196892 -196984 48862.1 -0.182184 -102.614 -0.152965
341 2 0.806103 40.4912 2.28146 37351.2 37270.8 -48077.1 -1.47346 -154.433 1.14119
342 2 4.03059 40.4912 4.56002 39670.1 39191 -2212.7 221.619 -59.7241 295.002
343 2 38.6939 39.0949 6.83856 39399.2 39476.6 -492.774 131.804 -172.824 87.3985
344 2 3.22442 39.095 9.11706 39868.9 38741.1 -5.68694 262.154 -344.428 167.053
345 2 1.61215 39.095 11.3956 39246.1 38306.1 -736.023 98.2114 -524.457 210.437
346 2 2.41832 40.4912 6.8385 39771.7 39177 -174.398 182.718 -239.746 91.5963
347 2 0.806049 40.4912 9.11706 39393.3 38840.9 -573.306 144.098 -482.889 103.248
348 2 4.03052 40.4912 11.3956 39762 38573.6 -972.484 272.544 -388.544 194.563
349 2 38.6938 39.095 13.6741 39467.9 39064.2 -106.787 214.551 -250.437 170.226
350 2 3.22436 39.0951 15.9526 39706.4 38240.2 -228.176 639.249 -370.339 435.513
351 2 1.6121 39.0951 18.2311 39392.6 38206.7 -101.18 675.58 -270.042 352.216
352 2 2.41826 40.4912 13.6741 39500.7 38633.2 -202.963 311.071 -320.767 312.623
353 2 0.805991 40.4912 15.9526 39521.2 38454.4 -198.252 387.885 -654.524 114.175
354 2 4.03052 40.4913 18.2311 40199.3 37565.2 -175.012 387.261 -363.034 164.597
355 2 38.6938 39.095 20.5097 39777.2 38060.9 -1882.06 533.4 -721.943 355.516
356 2 3.22442 39.0951 22.7882 38267.9 35618.5 -47489.4 365.187 -120.031 85.4168
357 2 1.61219 39.0951 25.0697 -195943 -198261 49560.5 197.79 -40.1752 64.9218
358 2 2.41826 40.4913 20.5097 40159.7 38166.6 -1487.98 507.479 -258.143 81.0286
359 2 0.806018 40.4913 22.7882 38132.5 35969.4 -47500.3 385.949 -132.683 188.696
360 2 4.03063 40.4913 25.0697 -196077 -198247 49353.7 223.851 101.646 36.5368
361 2 0 41.8874 0 -196893 -196956 48902.9 -1.17606 -52.0537 1.46804
362 2 3.22448 41.8874 2.28145 37555 37362.4 -48050.5 -0.580994 -127.29 -0.917411
363 2 1.61221 41.8874 4.56002 39783.4 39495.6 -2274.64 -3.70582 -353.671 -3.42036
364 2 2.41837 43.2837 0 -196891 -196983 48863.1 -0.77263 -103.543 1.40149
365 2 0.806103 43.2837 2.28146 37331.3 37222.8 -48111.4 0.393671 -130.627 1.46274
366 2 4.03059 43.2837 4.56002 39919.6 39766.8 -1695.3 -2.18186 111.076 2.10789
367 2 38.6939 41.8874 6.83856 39571.9 39588.8 -315.967 -24.6375 -110.228 -21.8291
368 2 3.22442 41.8874 9.11706 39945.9 39333.9 -190.781 145.765 -26.5023 79.8141
369 2 1.61215 41.8874 11.3956 39531.6 38984.1 -898.407 127.872 -203.719 114.279
370 2 2.41831 43.2837 6.8385 39885.4 39532.8 -30.2707 -1.29106 -177.57 1.04115
371 2 0.806049 43.2837 9.11706 39575.5 39205.8 -471.293 -0.144578 -410.238 -0.0940583
372 2 4.03052 43.2837 11.3956 39753.3 38526.4 -987.689 -2.88263 -378.651 3.66151
373 2 38.6938 41.8874 13.6741 39803.8 39258 143.98 152.945 -158.533 106.378
374 2 3.22438 41.8875 15.9526 39817.7 37926.4 -98.5316 158.371 -294.411 92.2896
375 2 1.61212 41.8875 18.2311 39788.9 37945.2 -108.631 129.114 -213.096 144.822
376 2 2.41826 43.2837 13.6741 39517.1 38611.2 -23.5361 -0.963153 -249.794 0.897678
377 2 0.805995 43.2837 15.9526 39701.3 38643.6 13.1781 0.59315 -222.187 -1.55024