  66  66   0   0
  0.4130481E+02  0.9717792E-09  0.1122114E-08  0.2500000E-08  0.1500000E-16
  1.000000000000000E-004
  CAR 
 Pt111 O2 adsorption system              
      7.38192067    -20.62646771  301      0.23981080      1.00000000
    -20.626  0.0000E+00  0.0000E+00
    -20.533  0.0000E+00  0.0000E+00
    -20.440  0.0000E+00  0.0000E+00
    -20.346  0.0000E+00  0.0000E+00
    -20.253  0.0000E+00  0.0000E+00
    -20.160  0.0000E+00  0.0000E+00
    -20.066  0.0000E+00  0.0000E+00
    -19.973  0.0000E+00  0.0000E+00
    -19.880  0.1280E-14  0.1195E-15
    -19.786  0.1196E-10  0.1116E-11
    -19.693  0.2034E-07  0.1900E-08
    -19.599  0.6432E-05  0.6024E-06
    -19.506  0.3904E-03  0.3705E-04
    -19.413  0.4780E-02  0.4833E-03
    -19.319  0.1251E-01  0.1651E-02
    -19.226  0.7229E-02  0.2326E-02
    -19.133  0.9047E-03  0.2410E-02
    -19.039  0.2321E-04  0.2413E-02
    -18.946  0.1157E-06  0.2413E-02
    -18.853  0.1079E-09  0.2413E-02
    -18.759  0.1842E-13  0.2413E-02
    -18.666  0.0000E+00  0.2413E-02
    -18.573  0.0000E+00  0.2413E-02
    -18.479  0.0000E+00  0.2413E-02
    -18.386  0.0000E+00  0.2413E-02
    -18.292  0.0000E+00  0.2413E-02
    -18.199  0.0000E+00  0.2413E-02
    -18.106  0.0000E+00  0.2413E-02
    -18.012  0.0000E+00  0.2413E-02
    -17.919  0.0000E+00  0.2413E-02
    -17.826  0.0000E+00  0.2413E-02
    -17.732  0.6168E-16  0.2413E-02
    -17.639  0.9492E-12  0.2413E-02
    -17.546  0.2672E-08  0.2413E-02
    -17.452  0.1388E-05  0.2413E-02
    -17.359  0.1368E-03  0.2425E-02
    -17.265  0.2677E-02  0.2675E-02
    -17.172  0.1101E-01  0.3704E-02
    -17.079  0.9958E-02  0.4633E-02
    -16.985  0.1972E-02  0.4817E-02
    -16.892  0.8144E-04  0.4825E-02
    -16.799  0.6629E-06  0.4825E-02
    -16.705  0.1020E-08  0.4825E-02
    -16.612  0.2886E-12  0.4825E-02
    -16.519  0.1434E-16  0.4825E-02
    -16.425  0.0000E+00  0.4825E-02
    -16.332  0.0000E+00  0.4825E-02
    -16.238  0.0000E+00  0.4825E-02
    -16.145  0.0000E+00  0.4825E-02
    -16.052  0.0000E+00  0.4825E-02
    -15.958  0.0000E+00  0.4825E-02
    -15.865  0.0000E+00  0.4825E-02
    -15.772  0.0000E+00  0.4825E-02
    -15.678  0.0000E+00  0.4825E-02
    -15.585  0.0000E+00  0.4825E-02
    -15.492  0.0000E+00  0.4825E-02
    -15.398  0.0000E+00  0.4825E-02
    -15.305  0.0000E+00  0.4825E-02
    -15.212  0.0000E+00  0.4825E-02
    -15.118  0.0000E+00  0.4825E-02
    -15.025  0.0000E+00  0.4825E-02
    -14.931  0.0000E+00  0.4825E-02
    -14.838  0.0000E+00  0.4825E-02
    -14.745  0.0000E+00  0.4825E-02
    -14.651  0.0000E+00  0.4825E-02
    -14.558  0.0000E+00  0.4825E-02
    -14.465  0.0000E+00  0.4825E-02
    -14.371  0.0000E+00  0.4825E-02
    -14.278  0.0000E+00  0.4825E-02
    -14.185  0.0000E+00  0.4825E-02
    -14.091  0.0000E+00  0.4825E-02
    -13.998  0.0000E+00  0.4825E-02
    -13.904  0.0000E+00  0.4825E-02
    -13.811  0.0000E+00  0.4825E-02
    -13.718  0.0000E+00  0.4825E-02
    -13.624  0.0000E+00  0.4825E-02
    -13.531  0.0000E+00  0.4825E-02
    -13.438  0.0000E+00  0.4825E-02
    -13.344  0.0000E+00  0.4825E-02
    -13.251  0.0000E+00  0.4825E-02
    -13.158  0.0000E+00  0.4825E-02
    -13.064  0.0000E+00  0.4825E-02
    -12.971  0.0000E+00  0.4825E-02
    -12.877  0.0000E+00  0.4825E-02
    -12.784  0.0000E+00  0.4825E-02
    -12.691  0.0000E+00  0.4825E-02
    -12.597  0.0000E+00  0.4825E-02
    -12.504  0.0000E+00  0.4825E-02
    -12.411  0.0000E+00  0.4825E-02
    -12.317  0.0000E+00  0.4825E-02
    -12.224  0.0000E+00  0.4825E-02
    -12.131  0.0000E+00  0.4825E-02
    -12.037  0.0000E+00  0.4825E-02
    -11.944  0.0000E+00  0.4825E-02
    -11.851  0.0000E+00  0.4825E-02
    -11.757  0.0000E+00  0.4825E-02
    -11.664  0.0000E+00  0.4825E-02
    -11.570  0.0000E+00  0.4825E-02
    -11.477  0.0000E+00  0.4825E-02
    -11.384  0.0000E+00  0.4825E-02
    -11.290  0.0000E+00  0.4825E-02
    -11.197  0.0000E+00  0.4825E-02
    -11.104  0.0000E+00  0.4825E-02
    -11.010  0.0000E+00  0.4825E-02
    -10.917  0.0000E+00  0.4825E-02
    -10.824  0.0000E+00  0.4825E-02
    -10.730  0.0000E+00  0.4825E-02
    -10.637  0.0000E+00  0.4825E-02
    -10.543  0.0000E+00  0.4825E-02
    -10.450  0.0000E+00  0.4825E-02
    -10.357  0.0000E+00  0.4825E-02
    -10.263  0.0000E+00  0.4825E-02
    -10.170  0.0000E+00  0.4825E-02
    -10.077  0.0000E+00  0.4825E-02
     -9.983  0.0000E+00  0.4825E-02
     -9.890  0.0000E+00  0.4825E-02
     -9.797  0.4782E-18  0.4825E-02
     -9.703  0.1113E-13  0.4825E-02
     -9.610  0.4791E-10  0.4825E-02
     -9.516  0.3787E-07  0.4825E-02
     -9.423  0.5634E-05  0.4826E-02
     -9.330  0.1644E-03  0.4841E-02
     -9.236  0.1011E-02  0.4935E-02
     -9.143  0.1813E-02  0.5105E-02
     -9.050  0.3560E-02  0.5437E-02
     -8.956  0.5478E-02  0.5948E-02
     -8.863  0.4892E-02  0.6405E-02
     -8.770  0.5901E-02  0.6956E-02
     -8.676  0.2863E-02  0.7223E-02
     -8.583  0.1610E-02  0.7374E-02
     -8.489  0.3032E-02  0.7657E-02
     -8.396  0.4156E-02  0.8045E-02
     -8.303  0.8696E-02  0.8857E-02
     -8.209  0.8349E-02  0.9636E-02
     -8.116  0.6320E-02  0.1023E-01
     -8.023  0.2258E-02  0.1044E-01
     -7.929  0.4727E-03  0.1048E-01
     -7.836  0.3055E-02  0.1077E-01
     -7.743  0.9811E-02  0.1168E-01
     -7.649  0.1365E-01  0.1296E-01
     -7.556  0.1252E-01  0.1413E-01
     -7.463  0.9057E-02  0.1497E-01
     -7.369  0.1020E-01  0.1592E-01
     -7.276  0.9631E-02  0.1682E-01
     -7.182  0.1103E-01  0.1785E-01
     -7.089  0.9349E-02  0.1873E-01
     -6.996  0.1078E-01  0.1973E-01
     -6.902  0.2026E-01  0.2162E-01
     -6.809  0.2242E-01  0.2372E-01
     -6.716  0.1771E-01  0.2537E-01
     -6.622  0.1887E-01  0.2713E-01
     -6.529  0.3569E-01  0.3046E-01
     -6.436  0.5526E-01  0.3562E-01
     -6.342  0.6126E-01  0.4134E-01
     -6.249  0.5980E-01  0.4693E-01
     -6.155  0.6357E-01  0.5286E-01
     -6.062  0.6609E-01  0.5903E-01
     -5.969  0.6287E-01  0.6490E-01
     -5.875  0.7489E-01  0.7189E-01
     -5.782  0.8713E-01  0.8003E-01
     -5.689  0.9145E-01  0.8856E-01
     -5.595  0.9577E-01  0.9751E-01
     -5.502  0.9658E-01  0.1065E+00
     -5.409  0.1059E+00  0.1164E+00
     -5.315  0.1109E+00  0.1268E+00
     -5.222  0.9950E-01  0.1361E+00
     -5.128  0.1009E+00  0.1455E+00
     -5.035  0.1027E+00  0.1551E+00
     -4.942  0.9093E-01  0.1636E+00
     -4.848  0.6546E-01  0.1697E+00
     -4.755  0.5938E-01  0.1752E+00
     -4.662  0.7626E-01  0.1823E+00
     -4.568  0.9646E-01  0.1913E+00
     -4.475  0.1006E+00  0.2007E+00
     -4.382  0.9603E-01  0.2097E+00
     -4.288  0.9684E-01  0.2187E+00
     -4.195  0.1086E+00  0.2289E+00
     -4.102  0.1158E+00  0.2397E+00
     -4.008  0.1099E+00  0.2499E+00
     -3.915  0.9550E-01  0.2589E+00
     -3.821  0.7943E-01  0.2663E+00
     -3.728  0.8615E-01  0.2743E+00
     -3.635  0.9547E-01  0.2832E+00
     -3.541  0.1098E+00  0.2935E+00
     -3.448  0.1292E+00  0.3055E+00
     -3.355  0.1420E+00  0.3188E+00
     -3.261  0.1478E+00  0.3326E+00
     -3.168  0.1594E+00  0.3475E+00
     -3.075  0.1694E+00  0.3633E+00
     -2.981  0.1633E+00  0.3785E+00
     -2.888  0.1663E+00  0.3941E+00
     -2.794  0.1598E+00  0.4090E+00
     -2.701  0.1391E+00  0.4220E+00
     -2.608  0.1572E+00  0.4366E+00
     -2.514  0.1627E+00  0.4518E+00
     -2.421  0.1359E+00  0.4645E+00
     -2.328  0.1107E+00  0.4749E+00
     -2.234  0.9169E-01  0.4834E+00
     -2.141  0.8940E-01  0.4918E+00
     -2.048  0.8848E-01  0.5000E+00
     -1.954  0.1010E+00  0.5095E+00
     -1.861  0.1376E+00  0.5223E+00
     -1.767  0.1555E+00  0.5368E+00
     -1.674  0.1335E+00  0.5493E+00
     -1.581  0.1135E+00  0.5599E+00
     -1.487  0.1037E+00  0.5696E+00
     -1.394  0.9148E-01  0.5781E+00
     -1.301  0.9983E-01  0.5874E+00
     -1.207  0.1129E+00  0.5980E+00
     -1.114  0.1186E+00  0.6090E+00
     -1.021  0.1234E+00  0.6206E+00
     -0.927  0.1291E+00  0.6326E+00
     -0.834  0.1446E+00  0.6461E+00
     -0.741  0.1530E+00  0.6604E+00
     -0.647  0.1307E+00  0.6726E+00
     -0.554  0.1104E+00  0.6829E+00
     -0.460  0.9667E-01  0.6919E+00
     -0.367  0.1029E+00  0.7015E+00
     -0.274  0.1162E+00  0.7124E+00
     -0.180  0.1162E+00  0.7232E+00
     -0.087  0.1241E+00  0.7348E+00
      0.006  0.1485E+00  0.7487E+00
      0.100  0.1653E+00  0.7641E+00
      0.193  0.1582E+00  0.7789E+00
      0.286  0.1634E+00  0.7941E+00
      0.380  0.1416E+00  0.8074E+00
      0.473  0.1087E+00  0.8175E+00
      0.567  0.8967E-01  0.8259E+00
      0.660  0.5763E-01  0.8313E+00
      0.753  0.4800E-01  0.8357E+00
      0.847  0.4816E-01  0.8402E+00
      0.940  0.4177E-01  0.8441E+00
      1.033  0.3372E-01  0.8473E+00
      1.127  0.3073E-01  0.8502E+00
      1.220  0.2636E-01  0.8526E+00
      1.313  0.1810E-01  0.8543E+00
      1.407  0.1796E-01  0.8560E+00
      1.500  0.2219E-01  0.8581E+00
      1.594  0.2172E-01  0.8601E+00
      1.687  0.1755E-01  0.8617E+00
      1.780  0.2033E-01  0.8636E+00
      1.874  0.2429E-01  0.8659E+00
      1.967  0.2267E-01  0.8680E+00
      2.060  0.3522E-01  0.8713E+00
      2.154  0.3891E-01  0.8749E+00
      2.247  0.2185E-01  0.8770E+00
      2.340  0.1395E-01  0.8783E+00
      2.434  0.1600E-01  0.8798E+00
      2.527  0.2674E-01  0.8823E+00
      2.620  0.3749E-01  0.8858E+00
      2.714  0.3706E-01  0.8892E+00
      2.807  0.2155E-01  0.8912E+00
      2.901  0.1567E-01  0.8927E+00
      2.994  0.1861E-01  0.8944E+00
      3.087  0.1971E-01  0.8963E+00
      3.181  0.1830E-01  0.8980E+00
      3.274  0.2140E-01  0.9000E+00
      3.367  0.2475E-01  0.9023E+00
      3.461  0.1989E-01  0.9041E+00
      3.554  0.2532E-01  0.9065E+00
      3.647  0.3523E-01  0.9098E+00
      3.741  0.3030E-01  0.9126E+00
      3.834  0.3044E-01  0.9155E+00
      3.928  0.2533E-01  0.9178E+00
      4.021  0.1626E-01  0.9193E+00
      4.114  0.9631E-02  0.9202E+00
      4.208  0.9007E-02  0.9211E+00
      4.301  0.1769E-01  0.9227E+00
      4.394  0.3222E-01  0.9257E+00
      4.488  0.3591E-01  0.9291E+00
      4.581  0.3004E-01  0.9319E+00
      4.674  0.2678E-01  0.9344E+00
      4.768  0.2173E-01  0.9364E+00
      4.861  0.1648E-01  0.9380E+00
      4.955  0.1451E-01  0.9393E+00
      5.048  0.1691E-01  0.9409E+00
      5.141  0.1669E-01  0.9425E+00
      5.235  0.1358E-01  0.9437E+00
      5.328  0.1527E-01  0.9452E+00
      5.421  0.1709E-01  0.9468E+00
      5.515  0.1292E-01  0.9480E+00
      5.608  0.7081E-02  0.9486E+00
      5.701  0.1411E-01  0.9499E+00
      5.795  0.3046E-01  0.9528E+00
      5.888  0.3626E-01  0.9562E+00
      5.982  0.2997E-01  0.9590E+00
      6.075  0.2471E-01  0.9613E+00
      6.168  0.1207E-01  0.9624E+00
      6.262  0.2102E-02  0.9626E+00
      6.355  0.1138E-03  0.9626E+00
      6.448  0.1580E-05  0.9626E+00
      6.542  0.4690E-08  0.9626E+00
      6.635  0.2695E-11  0.9626E+00
      6.728  0.2863E-15  0.9626E+00
      6.822  0.0000E+00  0.9626E+00
      6.915  0.0000E+00  0.9626E+00
      7.008  0.0000E+00  0.9626E+00
      7.102  0.0000E+00  0.9626E+00
      7.195  0.0000E+00  0.9626E+00
      7.289  0.0000E+00  0.9626E+00
      7.382  0.0000E+00  0.9626E+00
