   66   66  829    1
  0.4130481E+02  0.9717792E-09  0.1122114E-08  0.2500000E-08  0.1500000E-16
  1.000000000000000E-004
  CAR 
 Pt111 O2 adsorption system              
    652      5    399
 
  0.0000000E+00  0.0000000E+00  0.0000000E+00  0.1111111E+00
    1      -19.353359   1.000000
    2      -17.178339   1.000000
    3       -9.219321   1.000000
    4       -7.815943   1.000000
    5       -7.777329   1.000000
    6       -7.774601   1.000000
    7       -7.464282   1.000000
    8       -7.420440   1.000000
    9       -6.753320   1.000000
   10       -6.687601   1.000000
   11       -6.615597   1.000000
   12       -6.543325   1.000000
   13       -6.512556   1.000000
   14       -6.507123   1.000000
   15       -6.494417   1.000000
   16       -6.493536   1.000000
   17       -6.469650   1.000000
   18       -6.460916   1.000000
   19       -6.460090   1.000000
   20       -6.408050   1.000000
   21       -6.327113   1.000000
   22       -6.316739   1.000000
   23       -6.297634   1.000000
   24       -6.286008   1.000000
   25       -6.217320   1.000000
   26       -5.912552   1.000000
   27       -5.903193   1.000000
   28       -5.860465   1.000000
   29       -5.847622   1.000000
   30       -5.815550   1.000000
   31       -5.799262   1.000000
   32       -5.781965   1.000000
   33       -5.752049   1.000000
   34       -5.677309   1.000000
   35       -5.648537   1.000000
   36       -5.618507   1.000000
   37       -5.589205   1.000000
   38       -5.554199   1.000000
   39       -5.551260   1.000000
   40       -5.527887   1.000000
   41       -5.510591   1.000000
   42       -5.474115   1.000000
   43       -5.472933   1.000000
   44       -5.452863   1.000000
   45       -5.444365   1.000000
   46       -5.407692   1.000000
   47       -5.403634   1.000000
   48       -5.393671   1.000000
   49       -5.388847   1.000000
   50       -5.379912   1.000000
   51       -5.369111   1.000000
   52       -5.356715   1.000000
   53       -5.322526   1.000000
   54       -5.320665   1.000000
   55       -5.302740   1.000000
   56       -5.289753   1.000000
   57       -5.209981   1.000000
   58       -5.201487   1.000000
   59       -5.155060   1.000000
   60       -5.144998   1.000000
   61       -5.105241   1.000000
   62       -5.100312   1.000000
   63       -5.069157   1.000000
   64       -5.065670   1.000000
   65       -5.016824   1.000000
   66       -4.952236   1.000000
   67       -4.940431   1.000000
   68       -4.841522   1.000000
   69       -4.794592   1.000000
   70       -4.754201   1.000000
   71       -4.739632   1.000000
   72       -4.714567   1.000000
   73       -4.647808   1.000000
   74       -4.638902   1.000000
   75       -4.607552   1.000000
   76       -4.605688   1.000000
   77       -4.602225   1.000000
   78       -4.597970   1.000000
   79       -4.580592   1.000000
   80       -4.574915   1.000000
   81       -4.572284   1.000000
   82       -4.542952   1.000000
   83       -4.537337   1.000000
   84       -4.491124   1.000000
   85       -4.455823   1.000000
   86       -4.396018   1.000000
   87       -4.357150   1.000000
   88       -4.317672   1.000000
   89       -4.307891   1.000000
   90       -4.289429   1.000000
   91       -4.271604   1.000000
   92       -4.233383   1.000000
   93       -4.228372   1.000000
   94       -4.214427   1.000000
   95       -4.199717   1.000000
   96       -4.186351   1.000000
   97       -4.152785   1.000000
   98       -4.136142   1.000000
   99       -4.110115   1.000000
  100       -4.109416   1.000000
  101       -4.099254   1.000000
  102       -4.097961   1.000000
  103       -4.081997   1.000000
  104       -4.040202   1.000000
  105       -4.028055   1.000000
  106       -4.014654   1.000000
  107       -3.981435   1.000000
  108       -3.965834   1.000000
  109       -3.960844   1.000000
  110       -3.947114   1.000000
  111       -3.921816   1.000000
  112       -3.887485   1.000000
  113       -3.778862   1.000000
  114       -3.744449   1.000000
  115       -3.708803   1.000000
  116       -3.686610   1.000000
  117       -3.680312   1.000000
  118       -3.677937   1.000000
  119       -3.643227   1.000000
  120       -3.609287   1.000000
  121       -3.592600   1.000000
  122       -3.558994   1.000000
  123       -3.535803   1.000000
  124       -3.497351   1.000000
  125       -3.481885   1.000000
  126       -3.469913   1.000000
  127       -3.467975   1.000000
  128       -3.439674   1.000000
  129       -3.431522   1.000000
  130       -3.422274   1.000000
  131       -3.405778   1.000000
  132       -3.366428   1.000000
  133       -3.363836   1.000000
  134       -3.359766   1.000000
  135       -3.319075   1.000000
  136       -3.312506   1.000000
  137       -3.299299   1.000000
  138       -3.291750   1.000000
  139       -3.284466   1.000000
  140       -3.282156   1.000000
  141       -3.266947   1.000000
  142       -3.258280   1.000000
  143       -3.251307   1.000000
  144       -3.251239   1.000000
  145       -3.239339   1.000000
  146       -3.215599   1.000000
  147       -3.215034   1.000000
  148       -3.201495   1.000000
  149       -3.177807   1.000000
  150       -3.176156   1.000000
  151       -3.162482   1.000000
  152       -3.113527   1.000000
  153       -3.101133   1.000000
  154       -3.083063   1.000000
  155       -3.079941   1.000000
  156       -2.993102   1.000000
  157       -2.955358   1.000000
  158       -2.942934   1.000000
  159       -2.931764   1.000000
  160       -2.898409   1.000000
  161       -2.880974   1.000000
  162       -2.879244   1.000000
  163       -2.872609   1.000000
  164       -2.871851   1.000000
  165       -2.864445   1.000000
  166       -2.847608   1.000000
  167       -2.844331   1.000000
  168       -2.843007   1.000000
  169       -2.825284   1.000000
  170       -2.821812   1.000000
  171       -2.811115   1.000000
  172       -2.802882   1.000000
  173       -2.751909   1.000000
  174       -2.717792   1.000000
  175       -2.713056   1.000000
  176       -2.686239   1.000000
  177       -2.675555   1.000000
  178       -2.674021   1.000000
  179       -2.658888   1.000000
  180       -2.656467   1.000000
  181       -2.650988   1.000000
  182       -2.640287   1.000000
  183       -2.623334   1.000000
  184       -2.621167   1.000000
  185       -2.593283   1.000000
  186       -2.559100   1.000000
  187       -2.539910   1.000000
  188       -2.514841   1.000000
  189       -2.502547   1.000000
  190       -2.479524   1.000000
  191       -2.453781   1.000000
  192       -2.440083   1.000000
  193       -2.425916   1.000000
  194       -2.406753   1.000000
  195       -2.403554   1.000000
  196       -2.392144   1.000000
  197       -2.370157   1.000000
  198       -2.365779   1.000000
  199       -2.352171   1.000000
  200       -2.350712   1.000000
  201       -2.317393   1.000000
  202       -2.275658   1.000000
  203       -2.262694   1.000000
  204       -2.151278   1.000000
  205       -2.137235   1.000000
  206       -2.128487   1.000000
  207       -2.113627   1.000000
  208       -2.084979   1.000000
  209       -2.063900   1.000000
  210       -1.984610   1.000000
  211       -1.975125   1.000000
  212       -1.972724   1.000000
  213       -1.960925   1.000000
  214       -1.938965   1.000000
  215       -1.924966   1.000000
  216       -1.891410   1.000000
  217       -1.882512   1.000000
  218       -1.868396   1.000000
  219       -1.851155   1.000000
  220       -1.838880   1.000000
  221       -1.830998   1.000000
  222       -1.829908   1.000000
  223       -1.817458   1.000000
  224       -1.814438   1.000000
  225       -1.808853   1.000000
  226       -1.791723   1.000000
  227       -1.769432   1.000000
  228       -1.766094   1.000000
  229       -1.714721   1.000000
  230       -1.682142   1.000000
  231       -1.640694   1.000000
  232       -1.579485   1.000000
  233       -1.575973   1.000000
  234       -1.566990   1.000000
  235       -1.549999   1.000000
  236       -1.545091   1.000000
  237       -1.532380   1.000000
  238       -1.469485   1.000000
  239       -1.456190   1.000000
  240       -1.406950   1.000000
  241       -1.374672   1.000000
  242       -1.355775   1.000000
  243       -1.339117   1.000000
  244       -1.335356   1.000000
  245       -1.328337   1.000000
  246       -1.298185   1.000000
  247       -1.288298   1.000000
  248       -1.244148   1.000000
  249       -1.223923   1.000000
  250       -1.215113   1.000000
  251       -1.212609   1.000000
  252       -1.197776   1.000000
  253       -1.153510   1.000000
  254       -1.149582   1.000000
  255       -1.124075   1.000000
  256       -1.106399   1.000000
  257       -1.074059   1.000000
  258       -1.053159   1.000000
  259       -1.017683   1.000000
  260       -1.002712   1.000000
  261       -1.000039   1.000000
  262       -0.958857   1.000000
  263       -0.955048   1.000000
  264       -0.943119   1.000000
  265       -0.928184   1.000000
  266       -0.911192   1.000000
  267       -0.879973   1.000000
  268       -0.843940   1.000000
  269       -0.833644   1.000000
  270       -0.809302   1.000000
  271       -0.805033   1.000000
  272       -0.779497   1.000000
  273       -0.770204   1.000000
  274       -0.752133   1.000000
  275       -0.746500   1.000000
  276       -0.681671   1.000000
  277       -0.673020   1.000000
  278       -0.632895   1.000000
  279       -0.584016   1.000000
  280       -0.556701   1.000000
  281       -0.488179   1.000000
  282       -0.455064   1.000000
  283       -0.444447   1.000000
  284       -0.405340   1.000000
  285       -0.391482   1.000000
  286       -0.382727   1.000000
  287       -0.319459   1.000000
  288       -0.305636   1.000000
  289       -0.288833   1.000000
  290       -0.284352   1.000000
  291       -0.264678   1.000000
  292       -0.250123   1.000000
  293       -0.237093   1.000000
  294       -0.232937   1.000000
  295       -0.223213   1.000000
  296       -0.171092   1.000000
  297       -0.153369   1.000000
  298       -0.131230   1.000000
  299       -0.079704   0.999997
  300       -0.066869   0.999993
  301       -0.046837   0.999975
  302        0.001761   0.999619
  303        0.008991   0.999451
  304        0.022858   0.998923
  305        0.035442   0.998075
  306        0.039745   0.997668
  307        0.048309   0.996618
  308        0.076470   0.989556
  309        0.084328   0.986056
  310        0.099312   0.976536
  311        0.121942   0.952234
  312        0.128839   0.941719
  313        0.132316   0.935771
  314        0.153340   0.889313
  315        0.172591   0.829103
  316        0.177928   0.809255
  317        0.196050   0.732001
  318        0.196975   0.727673
  319        0.222517   0.596606
  320        0.226339   0.575546
  321        0.239135   0.503813
  322        0.242622   0.484144
  323        0.244209   0.475204
  324        0.246218   0.463901
  325        0.256973   0.404117
  326        0.258169   0.397578
  327        0.289803   0.239782
  328        0.290383   0.237241
  329        0.295793   0.214267
  330        0.302569   0.187396
  331        0.312084   0.153368
  332        0.312388   0.152354
  333        0.320536   0.126804
  334        0.371798   0.030980
  335        0.380651   0.023198
  336        0.454466   0.001200
  337        0.458846   0.000975
  338        0.460711   0.000892
  339        0.477642   0.000385
  340        0.522790   0.000031
  341        0.534689   0.000015
  342        0.542324   0.000009
  343        0.635775   0.000000
  344        0.655885   0.000000
  345        0.673456   0.000000
  346        0.689197   0.000000
  347        0.759477   0.000000
  348        0.766440   0.000000
  349        0.767959   0.000000
  350        0.788210   0.000000
  351        0.788753   0.000000
  352        1.091343   0.000000
  353        1.142543   0.000000
  354        1.208075   0.000000
  355        1.245152   0.000000
  356        1.357365   0.000000
  357        1.558680   0.000000
  358        1.566093   0.000000
  359        1.858364   0.000000
  360        2.003513   0.000000
  361        2.133927   0.000000
  362        2.146365   0.000000
  363        2.454206   0.000000
  364        2.525819   0.000000
  365        2.630320   0.000000
  366        2.651428   0.000000
  367        2.662248   0.000000
  368        2.717694   0.000000
  369        2.764497   0.000000
  370        2.767470   0.000000
  371        2.923578   0.000000
  372        2.944507   0.000000
  373        2.973015   0.000000
  374        3.126245   0.000000
  375        3.238191   0.000000
  376        3.265003   0.000000
  377        3.337373   0.000000
  378        3.748202   0.000000
  379        3.805214   0.000000
  380        3.822267   0.000000
  381        3.890682   0.000000
  382        4.030339   0.000000
  383        4.050842   0.000000
  384        4.301787   0.000000
  385        4.303209   0.000000
  386        4.433042   0.000000
  387        4.449655   0.000000
  388        4.600526   0.000000
  389        4.649607   0.000000
  390        5.064456   0.000000
  391        5.151907   0.000000
  392        5.392988   0.000000
  393        5.455164   0.000000
  394        5.508393   0.000000
  395        5.650323   0.000000
  396        5.731717   0.000000
  397        5.804601   0.000000
  398        5.871633   0.000000
  399        5.940943   0.000000
 
  0.3333333E+00  0.0000000E+00  0.0000000E+00  0.2222222E+00
    1      -19.353346   1.000000
    2      -17.178327   1.000000
    3       -8.985557   1.000000
    4       -8.331798   1.000000
    5       -7.628334   1.000000
    6       -7.625305   1.000000
    7       -7.585093   1.000000
    8       -7.191034   1.000000
    9       -7.181941   1.000000
   10       -6.990546   1.000000
   11       -6.731996   1.000000
   12       -6.542292   1.000000
   13       -6.517252   1.000000
   14       -6.481734   1.000000
   15       -6.427421   1.000000
   16       -6.395157   1.000000
   17       -6.360872   1.000000
   18       -6.319937   1.000000
   19       -6.315557   1.000000
   20       -6.232145   1.000000
   21       -6.191426   1.000000
   22       -6.182119   1.000000
   23       -6.130118   1.000000
   24       -6.128841   1.000000
   25       -6.083472   1.000000
   26       -5.981964   1.000000
   27       -5.929627   1.000000
   28       -5.915274   1.000000
   29       -5.847852   1.000000
   30       -5.839377   1.000000
   31       -5.816879   1.000000
   32       -5.799346   1.000000
   33       -5.768672   1.000000
   34       -5.756342   1.000000
   35       -5.744334   1.000000
   36       -5.733590   1.000000
   37       -5.680304   1.000000
   38       -5.641670   1.000000
   39       -5.608923   1.000000
   40       -5.584976   1.000000
   41       -5.582078   1.000000
   42       -5.546635   1.000000
   43       -5.537712   1.000000
   44       -5.533582   1.000000
   45       -5.511341   1.000000
   46       -5.502070   1.000000
   47       -5.458461   1.000000
   48       -5.449311   1.000000
   49       -5.403070   1.000000
   50       -5.380015   1.000000
   51       -5.362438   1.000000
   52       -5.341534   1.000000
   53       -5.340707   1.000000
   54       -5.299434   1.000000
   55       -5.260371   1.000000
   56       -5.244908   1.000000
   57       -5.212031   1.000000
   58       -5.210614   1.000000
   59       -5.174422   1.000000
   60       -5.157027   1.000000
   61       -5.135456   1.000000
   62       -5.098856   1.000000
   63       -5.096157   1.000000
   64       -5.056000   1.000000
   65       -5.048962   1.000000
   66       -5.035261   1.000000
   67       -4.994255   1.000000
   68       -4.957126   1.000000
   69       -4.912210   1.000000
   70       -4.892834   1.000000
   71       -4.832375   1.000000
   72       -4.789130   1.000000
   73       -4.724122   1.000000
   74       -4.720212   1.000000
   75       -4.675435   1.000000
   76       -4.633360   1.000000
   77       -4.628982   1.000000
   78       -4.615241   1.000000
   79       -4.587842   1.000000
   80       -4.548973   1.000000
   81       -4.544832   1.000000
   82       -4.523158   1.000000
   83       -4.505064   1.000000
   84       -4.485248   1.000000
   85       -4.433088   1.000000
   86       -4.416846   1.000000
   87       -4.398749   1.000000
   88       -4.358298   1.000000
   89       -4.347623   1.000000
   90       -4.306805   1.000000
   91       -4.244471   1.000000
   92       -4.225255   1.000000
   93       -4.223700   1.000000
   94       -4.184698   1.000000
   95       -4.182774   1.000000
   96       -4.160114   1.000000
   97       -4.130605   1.000000
   98       -4.113016   1.000000
   99       -4.087183   1.000000
  100       -4.079276   1.000000
  101       -4.057985   1.000000
  102       -4.037880   1.000000
  103       -4.026377   1.000000
  104       -4.010371   1.000000
  105       -3.998177   1.000000
  106       -3.965662   1.000000
  107       -3.941885   1.000000
  108       -3.940407   1.000000
  109       -3.904284   1.000000
  110       -3.870323   1.000000
  111       -3.782279   1.000000
  112       -3.768792   1.000000
  113       -3.762752   1.000000
  114       -3.751141   1.000000
  115       -3.684954   1.000000
  116       -3.672123   1.000000
  117       -3.662212   1.000000
  118       -3.599625   1.000000
  119       -3.579171   1.000000
  120       -3.572256   1.000000
  121       -3.542627   1.000000
  122       -3.527517   1.000000
  123       -3.525164   1.000000
  124       -3.499368   1.000000
  125       -3.477130   1.000000
  126       -3.469202   1.000000
  127       -3.437090   1.000000
  128       -3.427894   1.000000
  129       -3.401369   1.000000
  130       -3.395725   1.000000
  131       -3.383653   1.000000
  132       -3.359649   1.000000
  133       -3.338685   1.000000
  134       -3.332177   1.000000
  135       -3.318195   1.000000
  136       -3.268306   1.000000
  137       -3.261025   1.000000
  138       -3.229313   1.000000
  139       -3.221074   1.000000
  140       -3.206204   1.000000
  141       -3.191804   1.000000
  142       -3.172093   1.000000
  143       -3.170190   1.000000
  144       -3.166351   1.000000
  145       -3.124527   1.000000
  146       -3.106928   1.000000
  147       -3.099366   1.000000
  148       -3.071157   1.000000
  149       -3.067246   1.000000
  150       -3.045104   1.000000
  151       -3.037406   1.000000
  152       -3.032650   1.000000
  153       -3.024832   1.000000
  154       -3.011132   1.000000
  155       -3.004744   1.000000
  156       -2.951505   1.000000
  157       -2.947797   1.000000
  158       -2.927410   1.000000
  159       -2.923788   1.000000
  160       -2.901508   1.000000
  161       -2.891767   1.000000
  162       -2.889409   1.000000
  163       -2.866715   1.000000
  164       -2.854506   1.000000
  165       -2.849712   1.000000
  166       -2.832156   1.000000
  167       -2.821008   1.000000
  168       -2.812676   1.000000
  169       -2.804922   1.000000
  170       -2.786467   1.000000
  171       -2.765217   1.000000
  172       -2.763642   1.000000
  173       -2.725715   1.000000
  174       -2.719251   1.000000
  175       -2.711242   1.000000
  176       -2.673646   1.000000
  177       -2.659134   1.000000
  178       -2.655846   1.000000
  179       -2.651235   1.000000
  180       -2.619659   1.000000
  181       -2.616572   1.000000
  182       -2.607653   1.000000
  183       -2.597681   1.000000
  184       -2.576225   1.000000
  185       -2.573728   1.000000
  186       -2.549536   1.000000
  187       -2.547814   1.000000
  188       -2.528087   1.000000
  189       -2.515933   1.000000
  190       -2.489775   1.000000
  191       -2.483253   1.000000
  192       -2.469100   1.000000
  193       -2.440775   1.000000
  194       -2.420389   1.000000
  195       -2.417004   1.000000
  196       -2.404545   1.000000
  197       -2.395575   1.000000
  198       -2.369422   1.000000
  199       -2.344493   1.000000
  200       -2.312888   1.000000
  201       -2.242830   1.000000
  202       -2.241713   1.000000
  203       -2.213930   1.000000
  204       -2.181064   1.000000
  205       -2.175631   1.000000
  206       -2.145189   1.000000
  207       -2.141093   1.000000
  208       -2.091862   1.000000
  209       -2.028444   1.000000
  210       -2.009665   1.000000
  211       -1.974761   1.000000
  212       -1.967087   1.000000
  213       -1.939648   1.000000
  214       -1.926021   1.000000
  215       -1.916696   1.000000
  216       -1.908375   1.000000
  217       -1.874157   1.000000
  218       -1.868735   1.000000
  219       -1.851380   1.000000
  220       -1.836823   1.000000
  221       -1.815551   1.000000
  222       -1.812654   1.000000
  223       -1.773768   1.000000
  224       -1.734938   1.000000
  225       -1.725045   1.000000
  226       -1.724452   1.000000
  227       -1.696280   1.000000
  228       -1.688823   1.000000
  229       -1.674678   1.000000
  230       -1.637920   1.000000
  231       -1.625055   1.000000
  232       -1.613172   1.000000
  233       -1.575771   1.000000
  234       -1.561498   1.000000
  235       -1.540757   1.000000
  236       -1.516262   1.000000
  237       -1.512097   1.000000
  238       -1.496677   1.000000
  239       -1.453665   1.000000
  240       -1.446804   1.000000
  241       -1.400528   1.000000
  242       -1.353927   1.000000
  243       -1.305999   1.000000
  244       -1.299985   1.000000
  245       -1.266384   1.000000
  246       -1.265637   1.000000
  247       -1.253847   1.000000
  248       -1.245700   1.000000
  249       -1.198033   1.000000
  250       -1.182808   1.000000
  251       -1.157651   1.000000
  252       -1.150663   1.000000
  253       -1.145890   1.000000
  254       -1.131374   1.000000
  255       -1.110895   1.000000
  256       -1.107476   1.000000
  257       -1.083768   1.000000
  258       -1.059855   1.000000
  259       -1.047939   1.000000
  260       -1.038808   1.000000
  261       -0.986936   1.000000
  262       -0.976556   1.000000
  263       -0.960922   1.000000
  264       -0.954687   1.000000
  265       -0.941443   1.000000
  266       -0.920555   1.000000
  267       -0.910724   1.000000
  268       -0.872767   1.000000
  269       -0.860263   1.000000
  270       -0.833056   1.000000
  271       -0.824235   1.000000
  272       -0.823100   1.000000
  273       -0.809310   1.000000
  274       -0.801862   1.000000
  275       -0.794193   1.000000
  276       -0.788306   1.000000
  277       -0.780556   1.000000
  278       -0.772585   1.000000
  279       -0.751363   1.000000
  280       -0.726184   1.000000
  281       -0.710146   1.000000
  282       -0.684422   1.000000
  283       -0.662670   1.000000
  284       -0.644935   1.000000
  285       -0.627203   1.000000
  286       -0.615755   1.000000
  287       -0.595464   1.000000
  288       -0.563146   1.000000
  289       -0.506812   1.000000
  290       -0.469721   1.000000
  291       -0.449645   1.000000
  292       -0.386868   1.000000
  293       -0.364809   1.000000
  294       -0.341981   1.000000
  295       -0.329213   1.000000
  296       -0.320383   1.000000
  297       -0.299554   1.000000
  298       -0.286615   1.000000
  299       -0.273671   1.000000
  300       -0.171030   1.000000
  301       -0.155798   1.000000
  302       -0.148175   1.000000
  303       -0.132105   1.000000
  304       -0.093473   0.999999
  305       -0.075875   0.999996
  306       -0.036213   0.999953
  307       -0.035028   0.999949
  308       -0.021390   0.999890
  309       -0.006198   0.999748
  310        0.009335   0.999442
  311        0.017506   0.999166
  312        0.020535   0.999036
  313        0.054047   0.995694
  314        0.085342   0.985538
  315        0.092793   0.981198
  316        0.133315   0.933977
  317        0.159184   0.872906
  318        0.177481   0.810972
  319        0.196154   0.731516
  320        0.203861   0.694417
  321        0.211954   0.653192
  322        0.235354   0.525129
  323        0.239707   0.500585
  324        0.258397   0.396334
  325        0.260761   0.383506
  326        0.276938   0.299771
  327        0.282703   0.272063
  328        0.285039   0.261209
  329        0.308020   0.167366
  330        0.320353   0.127342
  331        0.321283   0.124623
  332        0.356099   0.050031
  333        0.410595   0.007862
  334        0.426002   0.004230
  335        0.428302   0.003842
  336        0.457398   0.001045
  337        0.469778   0.000573
  338        0.480939   0.000325
  339        0.489109   0.000211
  340        0.510866   0.000063
  341        0.532912   0.000017
  342        0.539991   0.000011
  343        0.547680   0.000007
  344        0.548449   0.000006
  345        0.595371   0.000000
  346        0.671048   0.000000
  347        0.798987   0.000000
  348        0.839044   0.000000
  349        0.910430   0.000000
  350        1.109296   0.000000
  351        1.412701   0.000000
  352        1.449298   0.000000
  353        1.486544   0.000000
  354        1.518877   0.000000
  355        1.763109   0.000000
  356        1.772167   0.000000
  357        1.822553   0.000000
  358        1.879574   0.000000
  359        1.896238   0.000000
  360        2.066921   0.000000
  361        2.073077   0.000000
  362        2.095806   0.000000
  363        2.301816   0.000000
  364        2.442633   0.000000
  365        2.459609   0.000000
  366        2.568042   0.000000
  367        2.595331   0.000000
  368        2.640740   0.000000
  369        2.691852   0.000000
  370        2.835204   0.000000
  371        2.836043   0.000000
  372        2.961454   0.000000
  373        3.001588   0.000000
  374        3.115737   0.000000
  375        3.173915   0.000000
  376        3.285701   0.000000
  377        3.308180   0.000000
  378        3.560179   0.000000
  379        3.623792   0.000000
  380        3.655762   0.000000
  381        3.741972   0.000000
  382        3.841260   0.000000
  383        4.040621   0.000000
  384        4.458692   0.000000
  385        4.475207   0.000000
  386        4.589828   0.000000
  387        4.756046   0.000000
  388        4.784792   0.000000
  389        4.922176   0.000000
  390        5.009596   0.000000
  391        5.089814   0.000000
  392        5.243471   0.000000
  393        5.482560   0.000000
  394        5.673187   0.000000
  395        5.769962   0.000000
  396        5.785462   0.000000
  397        5.895855   0.000000
  398        6.011760   0.000000
  399        6.108812   0.000000
 
  0.0000000E+00  0.3333333E+00  0.0000000E+00  0.2222222E+00
    1      -19.353306   1.000000
    2      -17.178357   1.000000
    3       -9.042958   1.000000
    4       -8.536111   1.000000
    5       -7.642348   1.000000
    6       -7.314765   1.000000
    7       -7.267892   1.000000
    8       -7.162515   1.000000
    9       -6.936215   1.000000
   10       -6.896214   1.000000
   11       -6.877806   1.000000
   12       -6.590380   1.000000
   13       -6.536212   1.000000
   14       -6.451575   1.000000
   15       -6.442378   1.000000
   16       -6.430683   1.000000
   17       -6.389206   1.000000
   18       -6.351235   1.000000
   19       -6.321098   1.000000
   20       -6.266114   1.000000
   21       -6.214298   1.000000
   22       -6.176020   1.000000
   23       -6.151047   1.000000
   24       -6.137034   1.000000
   25       -6.118607   1.000000
   26       -6.093104   1.000000
   27       -6.044002   1.000000
   28       -5.991293   1.000000
   29       -5.980683   1.000000
   30       -5.913901   1.000000
   31       -5.894232   1.000000
   32       -5.885027   1.000000
   33       -5.866934   1.000000
   34       -5.827251   1.000000
   35       -5.797670   1.000000
   36       -5.790033   1.000000
   37       -5.744277   1.000000
   38       -5.688312   1.000000
   39       -5.605227   1.000000
   40       -5.592891   1.000000
   41       -5.569910   1.000000
   42       -5.513053   1.000000
   43       -5.482253   1.000000
   44       -5.428848   1.000000
   45       -5.417925   1.000000
   46       -5.406369   1.000000
   47       -5.386324   1.000000
   48       -5.380859   1.000000
   49       -5.341254   1.000000
   50       -5.303734   1.000000
   51       -5.300201   1.000000
   52       -5.295485   1.000000
   53       -5.245817   1.000000
   54       -5.193664   1.000000
   55       -5.181280   1.000000
   56       -5.152172   1.000000
   57       -5.141117   1.000000
   58       -5.127709   1.000000
   59       -5.094147   1.000000
   60       -5.054330   1.000000
   61       -5.043955   1.000000
   62       -5.038632   1.000000
   63       -5.024714   1.000000
   64       -5.017384   1.000000
   65       -4.993604   1.000000
   66       -4.967408   1.000000
   67       -4.958828   1.000000
   68       -4.946662   1.000000
   69       -4.933173   1.000000
   70       -4.879465   1.000000
   71       -4.839096   1.000000
   72       -4.789001   1.000000
   73       -4.701685   1.000000
   74       -4.675733   1.000000
   75       -4.671220   1.000000
   76       -4.654495   1.000000
   77       -4.640205   1.000000
   78       -4.627436   1.000000
   79       -4.582443   1.000000
   80       -4.579603   1.000000
   81       -4.562187   1.000000
   82       -4.539005   1.000000
   83       -4.519390   1.000000
   84       -4.478914   1.000000
   85       -4.456880   1.000000
   86       -4.441233   1.000000
   87       -4.429450   1.000000
   88       -4.398559   1.000000
   89       -4.363623   1.000000
   90       -4.330039   1.000000
   91       -4.303263   1.000000
   92       -4.282135   1.000000
   93       -4.272973   1.000000
   94       -4.243630   1.000000
   95       -4.221219   1.000000
   96       -4.206660   1.000000
   97       -4.185921   1.000000
   98       -4.149605   1.000000
   99       -4.143495   1.000000