 vasp.5.4.4.18Apr17-6-g9f103f2a35 (build Nov 06 2023 00:46:14) complex          
  
 executed on             LinuxIFC date 2025.07.24  11:33:30
 running on   48 total cores
 each image running on   48 cores
 distrk:  each k-point on   48 cores,    1 groups
 distr:  one band on NCORES_PER_BAND=   4 cores,   12 groups


--------------------------------------------------------------------------------------------------------


 INCAR:
 POTCAR:    PAW_PBE Pt 04Feb2005                  
 POTCAR:    PAW_PBE O 08Apr2002                   
 POTCAR:    PAW_PBE Pt 04Feb2005                  
   VRHFIN =Pt: s1d9                                                             
   LEXCH  = PE                                                                  
   EATOM  =   729.1176 eV,   53.5886 Ry                                         
                                                                                
   TITEL  = PAW_PBE Pt 04Feb2005                                                
   LULTRA =        F    use ultrasoft PP ?                                      
   IUNSCR =        1    unscreen: 0-lin 1-nonlin 2-no                           
   RPACOR =    2.330    partial core radius                                     
   POMASS =  195.080; ZVAL   =   10.000    mass and valenz                      
   RCORE  =    2.600    outmost cutoff radius                                   
   RWIGS  =    2.750; RWIGS  =    1.455    wigner-seitz radius (au A)           
   ENMAX  =  230.283; ENMIN  =  172.712 eV                                      
   ICORE  =        3    local potential                                         
   LCOR   =        T    correct aug charges                                     
   LPAW   =        T    paw PP                                                  
   EAUG   =  358.966                                                            
   DEXC   =    0.000                                                            
   RMAX   =    2.658    core radius for proj-oper                               
   RAUG   =    1.300    factor for augmentation sphere                          
   RDEP   =    2.761    radius for radial grids                                 
   RDEPT  =    2.203    core radius for aug-charge                              
                                                                                
   Atomic configuration                                                         
   16 entries                                                                   
     n  l   j            E        occ.                                          
     1  0  0.50    -78401.1885   2.0000                                         
     2  0  0.50    -13770.7750   2.0000                                         
     2  1  1.50    -11931.0468   6.0000                                         
     3  0  0.50     -3234.7234   2.0000                                         
     3  1  1.50     -2699.2216   6.0000                                         
     3  2  2.50     -2119.5714  10.0000                                         
     4  0  0.50      -695.1528   2.0000                                         
     4  1  1.50      -519.6034   6.0000                                         
     4  2  2.50      -306.6786  10.0000                                         
     4  3  3.50       -70.1041  14.0000                                         
     5  0  0.50      -101.7747   2.0000                                         
     5  1  1.50       -55.9873   6.0000                                         
     5  2  2.50        -6.1423   9.0000                                         
     6  0  0.50        -5.6573   1.0000                                         
     6  1  1.50        -6.8029   0.0000                                         
     5  3  2.50        -1.3606   0.0000                                         
   Description                                                                  
     l       E           TYP  RCUT    TYP  RCUT                                 
     2     -6.1423404     23  2.500                                             
     2     -7.5029230     23  2.500                                             
     0     -5.6573207     23  2.500                                             
     0      0.7416693     23  2.500                                             
     1     -2.7211652     23  2.600                                             
     1     20.4087390     23  2.600                                             
     3     -1.3605826     23  2.500                                             
  local pseudopotential read in
  partial core-charges read in
  partial kinetic energy density read in
  atomic valenz-charges read in
  non local Contribution for L=           2  read in
    real space projection operators read in
  non local Contribution for L=           2  read in
    real space projection operators read in
  non local Contribution for L=           0  read in
    real space projection operators read in
  non local Contribution for L=           0  read in
    real space projection operators read in
  non local Contribution for L=           1  read in
    real space projection operators read in
  non local Contribution for L=           1  read in
    real space projection operators read in
    PAW grid and wavefunctions read in
 
   number of l-projection  operators is LMAX  =           6
   number of lm-projection operators is LMMAX =          18
 
 POTCAR:    PAW_PBE O 08Apr2002                   
   VRHFIN =O: s2p4                                                              
   LEXCH  = PE                                                                  
   EATOM  =   432.3788 eV,   31.7789 Ry                                         
                                                                                
   TITEL  = PAW_PBE O 08Apr2002                                                 
   LULTRA =        F    use ultrasoft PP ?                                      
   IUNSCR =        1    unscreen: 0-lin 1-nonlin 2-no                           
   RPACOR =    1.200    partial core radius                                     
   POMASS =   16.000; ZVAL   =    6.000    mass and valenz                      
   RCORE  =    1.520    outmost cutoff radius                                   
   RWIGS  =    1.550; RWIGS  =    0.820    wigner-seitz radius (au A)           
   ENMAX  =  400.000; ENMIN  =  300.000 eV                                      
   ICORE  =        2    local potential                                         
   LCOR   =        T    correct aug charges                                     
   LPAW   =        T    paw PP                                                  
   EAUG   =  605.392                                                            
   DEXC   =    0.000                                                            
   RMAX   =    1.553    core radius for proj-oper                               
   RAUG   =    1.300    factor for augmentation sphere                          
   RDEP   =    1.550    radius for radial grids                                 
   RDEPT  =    1.329    core radius for aug-charge                              
                                                                                
   Atomic configuration                                                         
    4 entries                                                                   
     n  l   j            E        occ.                                          
     1  0  0.50      -514.6923   2.0000                                         
     2  0  0.50       -23.9615   2.0000                                         
     2  1  0.50        -9.0305   4.0000                                         
     3  2  1.50        -9.5241   0.0000                                         
   Description                                                                  
     l       E           TYP  RCUT    TYP  RCUT                                 
     0    -23.9615318     23  1.200                                             
     0     -9.5240782     23  1.200                                             
     1     -9.0304911     23  1.520                                             
     1      8.1634956     23  1.520                                             
     2     -9.5240782      7  1.500                                             
  local pseudopotential read in
  partial core-charges read in
  partial kinetic energy density read in
  kinetic energy density of atom read in
  atomic valenz-charges read in
  non local Contribution for L=           0  read in
    real space projection operators read in
  non local Contribution for L=           0  read in
    real space projection operators read in
  non local Contribution for L=           1  read in
    real space projection operators read in
  non local Contribution for L=           1  read in
    real space projection operators read in
    PAW grid and wavefunctions read in
 
   number of l-projection  operators is LMAX  =           4
   number of lm-projection operators is LMMAX =           8
 
 Optimization of the real space projectors (new method)

 maximal supplied QI-value         = 14.36
 optimisation between [QCUT,QGAM] = [ 10.77, 21.69] = [ 32.49,131.70] Ry 
 Optimized for a Real-space Cutoff    1.46 Angstroem

   l    n(q)    QCUT    max X(q) W(low)/X(q) W(high)/X(q)  e(spline) 
   2      9    10.771    66.195    0.13E-03    0.31E-03    0.27E-06
   2      9    10.771    64.643    0.13E-03    0.32E-03    0.28E-06
   0     10    10.771    95.520    0.41E-04    0.13E-03    0.15E-06
   0     10    10.771    63.403    0.40E-04    0.12E-03    0.14E-06
   1      9    10.771    19.961    0.42E-03    0.19E-03    0.28E-06
   1      9    10.771    13.289    0.35E-03    0.16E-03    0.23E-06
 Optimization of the real space projectors (new method)

 maximal supplied QI-value         = 24.76
 optimisation between [QCUT,QGAM] = [ 10.64, 21.54] = [ 31.73,129.89] Ry 
 Optimized for a Real-space Cutoff    1.23 Angstroem

   l    n(q)    QCUT    max X(q) W(low)/X(q) W(high)/X(q)  e(spline) 
   0      8    10.645    20.381    0.38E-03    0.60E-03    0.15E-06
   0      8    10.645    15.268    0.40E-03    0.65E-03    0.17E-06
   1      7    10.645     5.964    0.30E-03    0.63E-03    0.18E-06
   1      7    10.645     5.382    0.24E-03    0.53E-03    0.16E-06
  PAW_PBE Pt 04Feb2005                  :
 energy of atom  1       EATOM= -729.1176
 kinetic energy error for atom=    0.0051 (will be added to EATOM!!)
  PAW_PBE O 08Apr2002                   :
 energy of atom  2       EATOM= -432.3788
 kinetic energy error for atom=    0.0389 (will be added to EATOM!!)
 
 
 POSCAR: Pt  O                                   
  positions in cartesian coordinates
  No initial velocities read in
 exchange correlation table for  LEXCH =        8
   RHO(1)=    0.500       N(1)  =     2000
   RHO(2)=  100.500       N(2)  =     4000

 VTST: version 3.2, (02/03/18)

 CHAIN: initializing optimizer
 
 OPT: Using VASP QUASI-newton optimizer
 CHAIN: Read ICHAIN            0
 CHAIN: Running the NEB
 NEB:          SPRING    -10.000000
 NEB:          LCLIMB      T
 NEB:     LTANGENTOLD      F
 NEB:           LDNEB      F
 NEB:        LDNEBORG      F
 NEB:        LNEBCELL      F
 NEB:          EFIRST      0.000000
 NEB:           ELAST      0.000000
 
 POSCAR: Pt  O                                   
  positions in cartesian coordinates
  No initial velocities read in
 
 POSCAR: Pt  O                                   
  positions in cartesian coordinates
  No initial velocities read in
 


--------------------------------------------------------------------------------------------------------


 ion  position               nearest neighbor table
   1  0.000  0.000  0.000-  34 2.81  29 2.81   5 2.81   4 2.81  28 2.81  36 2.81  60 2.81  25 2.81
                             9 2.81
   2  0.333  0.000  0.092-  30 2.73   3 2.73   6 2.79  33 2.81   4 2.81  28 2.81   5 2.81  29 2.81
                            37 2.81  61 2.81  10 2.81  26 2.81
   3  0.168  0.001  0.180-   2 2.73   8 2.74   5 2.74  29 2.75  32 2.78   7 2.80  30 2.80  11 2.80
                            38 2.81  62 2.81   6 2.81  27 2.83
   4  0.250  0.125  0.000-   5 2.81   2 2.81  10 2.81   9 2.81   1 2.81  33 2.81  41 2.81  12 2.81
                            28 2.81
   5  0.083  0.125  0.092-  38 2.73   3 2.74  11 2.75   4 2.81   1 2.81   9 2.81   2 2.81  34 2.81
                            10 2.81  42 2.81  29 2.81  13 2.81
   6  0.418  0.127  0.182-  10 2.76  37 2.77  43 2.77  39 2.77  14 2.78   2 2.79  11 2.80   8 2.80
                            47 2.81  35 2.81   3 2.81  30 2.83
   7  0.999  0.999  0.271-   8 2.75  40 2.76  31 2.77  64 2.77  62 2.78  15 2.80   3 2.80  38 2.80
                            32 2.80
   8  0.245  0.118  0.271-  32 2.73   3 2.74   7 2.75   6 2.80  11 2.81  15 2.82  39 2.83  16 2.88
                            47 2.94
   9  0.000  0.250  0.000-  42 2.81  13 2.81   5 2.81   4 2.81  36 2.81  12 2.81  44 2.81  17 2.81
                             1 2.81
  10  0.333  0.250  0.092-  11 2.74   6 2.76  14 2.76  41 2.81   4 2.81  12 2.81   5 2.81  37 2.81
                            13 2.81  45 2.81  18 2.81   2 2.81
  11  0.168  0.250  0.180-  10 2.74  13 2.75   5 2.75  16 2.76  15 2.79  14 2.79  19 2.79   6 2.80
                             3 2.80  46 2.81  38 2.81   8 2.81
  12  0.250  0.375  0.000-  13 2.81  10 2.81  18 2.81  17 2.81   9 2.81  41 2.81  49 2.81   4 2.81
                            20 2.81
  13  0.083  0.375  0.092-  46 2.72  19 2.75  11 2.75  12 2.81   9 2.81  17 2.81  10 2.81  42 2.81
                            18 2.81  50 2.81  21 2.81   5 2.81
  14  0.416  0.375  0.181-  10 2.76  18 2.76  45 2.77   6 2.78  22 2.78  11 2.79  19 2.79  51 2.79
                            43 2.79  47 2.85  55 2.85  16 2.85
  15  0.997  0.248  0.270-  48 2.74  16 2.74  40 2.76  38 2.76  11 2.79  46 2.79   7 2.80   8 2.82
                            23 2.86
  16  0.238  0.375  0.272-  66 2.14  15 2.74  23 2.74  11 2.76  19 2.76  14 2.85  24 2.88   8 2.88
                            55 2.98  47 2.98
  17  0.000  0.500  0.000-  50 2.81  21 2.81  13 2.81  12 2.81  44 2.81  20 2.81  52 2.81  25 2.81
                             9 2.81
  18  0.333  0.500  0.092-  19 2.74  22 2.76  14 2.76  49 2.81  12 2.81  20 2.81  13 2.81  45 2.81
                            21 2.81  53 2.81  26 2.81  10 2.81
  19  0.168  0.500  0.180-  18 2.74  13 2.75  21 2.76  16 2.76  23 2.79  14 2.79  11 2.79  22 2.80
                            27 2.80  46 2.81  54 2.81  24 2.81
  20  0.250  0.625  0.000-  21 2.81  18 2.81  26 2.81  25 2.81  17 2.81  49 2.81  57 2.81  12 2.81
                            28 2.81
  21  0.083  0.625  0.092-  54 2.73  27 2.74  19 2.76  20 2.81  17 2.81  25 2.81  18 2.81  50 2.81
                            26 2.81  58 2.81  29 2.81  13 2.81
  22  0.418  0.623  0.182-  18 2.76  53 2.77  51 2.77  63 2.77  14 2.78  26 2.79  19 2.80  24 2.80
                            55 2.81  59 2.81  27 2.81  30 2.83
  23  0.997  0.502  0.270-  48 2.74  16 2.74  56 2.76  54 2.76  19 2.79  46 2.79  31 2.80  24 2.82
                            15 2.86
  24  0.245  0.632  0.271-  32 2.73  27 2.74  31 2.75  22 2.80  19 2.81  23 2.82  63 2.83  16 2.88
                            55 2.94
  25  0.000  0.750  0.000-  58 2.81  29 2.81  21 2.81  20 2.81  52 2.81  28 2.81  60 2.81  17 2.81
                             1 2.81
  26  0.333  0.750  0.092-  30 2.73  27 2.73  22 2.79  57 2.81  20 2.81  28 2.81  21 2.81  53 2.81
                            29 2.81  61 2.81   2 2.81  18 2.81
  27  0.168  0.749  0.180-  26 2.73  24 2.74  21 2.74  29 2.75  32 2.78  31 2.80  30 2.80  19 2.80
                            54 2.81  62 2.81  22 2.81   3 2.83
  28  0.250  0.875  0.000-  29 2.81  26 2.81   2 2.81   1 2.81  25 2.81  33 2.81  57 2.81  20 2.81
                             4 2.81
  29  0.083  0.875  0.092-  62 2.72   3 2.75  27 2.75  28 2.81  25 2.81   1 2.81  26 2.81  34 2.81
                            58 2.81   2 2.81  21 2.81   5 2.81
  30  0.417  0.875  0.180-  61 2.73  26 2.73   2 2.73  39 2.77  63 2.77  32 2.80  27 2.80   3 2.80
                            59 2.81  35 2.81   6 2.83  22 2.83
  31  0.999  0.751  0.271-  24 2.75  56 2.76   7 2.77  64 2.77  62 2.78  23 2.80  27 2.80  54 2.80
                            32 2.80
  32  0.249  0.875  0.271-   8 2.73  24 2.73  27 2.78   3 2.78  30 2.80   7 2.80  31 2.80  63 2.81
                            39 2.81
  33  0.500  0.000  0.000-   2 2.81  37 2.81  61 2.81  36 2.81   4 2.81  60 2.81  28 2.81  41 2.81
                            57 2.81
  34  0.833  0.000  0.092-  38 2.73  35 2.73  62 2.73   1 2.81  60 2.81  36 2.81   5 2.81  29 2.81
                            61 2.81  37 2.81  58 2.81  42 2.81
  35  0.667  1.000  0.180-  34 2.73  61 2.73  37 2.73  39 2.77  40 2.78  64 2.79  59 2.80  30 2.81
                            43 2.81  38 2.81   6 2.81  62 2.82
  36  0.750  0.125  0.000-  37 2.81  34 2.81  42 2.81   1 2.81   9 2.81  41 2.81  33 2.81  44 2.81
                            60 2.81
  37  0.583  0.125  0.092-  35 2.73  43 2.76   6 2.77  36 2.81  41 2.81  33 2.81   2 2.81  34 2.81
                            42 2.81  10 2.81  45 2.81  61 2.81
  38  0.917  0.125  0.179-   5 2.73  34 2.73  42 2.73  15 2.76  40 2.78   7 2.80  62 2.80  46 2.81
                             3 2.81  35 2.81  11 2.81  43 2.82
  39  0.502  0.997  0.270-  63 2.75   6 2.77  30 2.77  35 2.77  64 2.79  32 2.81  40 2.81  47 2.82
                             8 2.83
  40  0.753  0.122  0.270-  15 2.76   7 2.76  47 2.77  64 2.78  38 2.78  35 2.78  43 2.79  39 2.81
                            48 2.84
  41  0.500  0.250  0.000-  10 2.81  37 2.81  45 2.81  36 2.81   4 2.81  44 2.81  12 2.81  33 2.81
                            49 2.81
  42  0.833  0.250  0.092-  46 2.73  38 2.73  43 2.77   9 2.81  44 2.81  36 2.81   5 2.81  37 2.81
                            45 2.81  13 2.81  34 2.81  50 2.81
  43  0.665  0.250  0.181-  37 2.76  45 2.76  47 2.77  48 2.77   6 2.77  42 2.77  40 2.79  14 2.79
                            35 2.81  51 2.81  46 2.82  38 2.82
  44  0.750  0.375  0.000-  45 2.81  42 2.81  50 2.81   9 2.81  17 2.81  49 2.81  41 2.81  36 2.81
                            52 2.81
  45  0.583  0.375  0.092-  51 2.76  43 2.76  14 2.77  44 2.81  49 2.81  41 2.81  10 2.81  42 2.81
                            50 2.81  18 2.81  37 2.81  53 2.81
  46  0.917  0.375  0.179-  13 2.72  42 2.73  50 2.73  48 2.74  23 2.79  15 2.79  54 2.81  38 2.81
                            11 2.81  19 2.81  43 2.82  51 2.82
  47  0.508  0.249  0.273-  66 2.09  43 2.77  40 2.77   6 2.81  48 2.81  39 2.82  55 2.84  14 2.85
                             8 2.94  16 2.98
  48  0.757  0.375  0.270-  23 2.74  15 2.74  46 2.74  51 2.77  43 2.77  55 2.81  47 2.81  56 2.84
                            40 2.84
  49  0.500  0.500  0.000-  18 2.81  45 2.81  53 2.81  44 2.81  12 2.81  52 2.81  20 2.81  41 2.81
                            57 2.81
  50  0.833  0.500  0.092-  46 2.73  54 2.73  51 2.77  17 2.81  52 2.81  44 2.81  13 2.81  45 2.81
                            53 2.81  21 2.81  42 2.81  58 2.81
  51  0.665  0.500  0.181-  53 2.76  45 2.76  55 2.77  48 2.77  22 2.77  50 2.77  56 2.79  14 2.79
                            59 2.81  43 2.81  46 2.82  54 2.82
  52  0.750  0.625  0.000-  53 2.81  50 2.81  58 2.81  17 2.81  25 2.81  57 2.81  49 2.81  44 2.81
                            60 2.81
  53  0.583  0.625  0.092-  59 2.73  51 2.76  22 2.77  52 2.81  57 2.81  49 2.81  18 2.81  50 2.81
                            58 2.81  26 2.81  45 2.81  61 2.81
  54  0.917  0.625  0.179-  21 2.73  58 2.73  50 2.73  23 2.76  56 2.78  31 2.80  62 2.80  46 2.81
                            27 2.81  59 2.81  19 2.81  51 2.82
  55  0.508  0.501  0.273-  65 1.96  51 2.77  56 2.77  22 2.81  48 2.81  63 2.82  47 2.84  14 2.85
                            24 2.94  16 2.98
  56  0.753  0.628  0.270-  23 2.76  31 2.76  55 2.77  64 2.78  54 2.78  59 2.78  51 2.79  63 2.81
                            48 2.84
  57  0.500  0.750  0.000-  26 2.81  53 2.81  61 2.81  52 2.81  20 2.81  60 2.81  28 2.81  33 2.81
                            49 2.81
  58  0.833  0.750  0.092-  54 2.73  59 2.73  62 2.73  25 2.81  60 2.81  52 2.81  21 2.81  53 2.81
                            61 2.81  29 2.81  50 2.81  34 2.81
  59  0.667  0.750  0.180-  58 2.73  61 2.73  53 2.73  63 2.77  56 2.78  64 2.79  35 2.80  30 2.81
                            51 2.81  54 2.81  22 2.81  62 2.82
  60  0.750  0.875  0.000-  61 2.81  58 2.81  34 2.81   1 2.81  57 2.81  25 2.81  33 2.81  52 2.81
                            36 2.81
  61  0.583  0.875  0.092-  30 2.73  59 2.73  35 2.73  60 2.81  33 2.81  57 2.81  26 2.81  58 2.81
                            34 2.81   2 2.81  37 2.81  53 2.81
  62  0.918  0.875  0.179-  29 2.72  58 2.73  34 2.73  31 2.78   7 2.78  64 2.79  54 2.80  38 2.80
                            27 2.81   3 2.81  59 2.82  35 2.82
  63  0.502  0.753  0.270-  39 2.75  22 2.77  30 2.77  59 2.77  64 2.79  32 2.81  56 2.81  55 2.82
                            24 2.83
  64  0.751  0.875  0.270-  31 2.77   7 2.77  56 2.78  40 2.78  59 2.79  35 2.79  62 2.79  39 2.79
                            63 2.79
  65  0.475  0.462  0.349-  55 1.96
  66  0.375  0.312  0.333-  47 2.09  16 2.14
 

IMPORTANT INFORMATION: All symmetrisations will be switched off!
NOSYMM: (Re-)initialisation of all symmetry stuff for point group C_1.

 
 
 KPOINTS: K-Spacing Value to Generate K-Mesh: 0.03

Automatic generation of k-mesh.
Space group operators:
 irot       det(A)        alpha          n_x          n_y          n_z        tau_x        tau_y        tau_z
    1     1.000000     0.000000     1.000000     0.000000     0.000000     0.000000     0.000000     0.000000
 
 Subroutine IBZKPT returns following result:
 ===========================================
 
 Found      5 irreducible k-points:
 
 Following reciprocal coordinates:
            Coordinates               Weight
  0.000000  0.000000  0.000000      1.000000
  0.333333  0.000000  0.000000      2.000000
  0.000000  0.333333  0.000000      2.000000
  0.333333  0.333333  0.000000      2.000000
 -0.333333  0.333333  0.000000      2.000000
 
 Following cartesian coordinates:
            Coordinates               Weight
  0.000000  0.000000  0.000000      1.000000
  0.034301  0.000000  0.000000      2.000000
  0.000000  0.029706  0.000000      2.000000
  0.034301  0.029706  0.000000      2.000000
 -0.034301  0.029706  0.000000      2.000000
 


--------------------------------------------------------------------------------------------------------




 Dimension of arrays:
   k-points           NKPTS =      5   k-points in BZ     NKDIM =      5   number of bands    NBANDS=    396
   number of dos      NEDOS =    301   number of ions     NIONS =     66
   non local maximal  LDIM  =      6   non local SUM 2l+1 LMDIM =     18
   total plane-waves  NPLWV = 420000
   max r-space proj   IRMAX =   2078   max aug-charges    IRDMAX=   9530
   dimension x,y,z NGX =    50 NGY =   60 NGZ =  140
   dimension x,y,z NGXF=   100 NGYF=  120 NGZF=  280
   support grid    NGXF=   100 NGYF=  120 NGZF=  280
   ions per type =              64   2
   NGX,Y,Z   is equivalent  to a cutoff of   8.55,  8.89,  9.31 a.u.
   NGXF,Y,Z  is equivalent  to a cutoff of  17.11, 17.78, 18.62 a.u.

 SYSTEM =  Pt-O2                                   
 POSCAR =  Pt  O                                   

 Startparameter for this run:
   NWRITE =      2    write-flag & timer
   PREC   = normal    normal or accurate (medium, high low for compatibility)
   ISTART =      0    job   : 0-new  1-cont  2-samecut
   ICHARG =      1    charge: 1-file 2-atom 10-const
   ISPIN  =      1    spin polarized calculation?
   LNONCOLLINEAR =      F non collinear calculations
   LSORBIT =      F    spin-orbit coupling
   INIWAV =      1    electr: 0-lowe 1-rand  2-diag
   LASPH  =      F    aspherical Exc in radial PAW
   METAGGA=      F    non-selfconsistent MetaGGA calc.

 Electronic Relaxation 1
   ENCUT  =  450.0 eV  33.07 Ry    5.75 a.u.  16.81 19.41 43.24*2*pi/ulx,y,z
   ENINI  =  450.0     initial cutoff
   ENAUG  =  605.4 eV  augmentation charge cutoff
   NELM   =     60;   NELMIN=  2; NELMDL= -5     # of ELM steps 
   EDIFF  = 0.1E-05   stopping-criterion for ELM
   LREAL  =      T    real-space projection
   NLSPLINE    = F    spline interpolate recip. space projectors
   LCOMPAT=      F    compatible to vasp.4.4
   GGA_COMPAT  = T    GGA compatible to vasp.4.4-vasp.4.6
   LMAXPAW     = -100 max onsite density
   LMAXMIX     =    2 max onsite mixed and CHGCAR
   VOSKOWN=      0    Vosko Wilk Nusair interpolation
   ROPT   =   -0.00050  -0.00050
 Ionic relaxation
   EDIFFG = -.3E-01   stopping-criterion for IOM
   NSW    =    200    number of steps for IOM
   NBLOCK =      1;   KBLOCK =    200    inner block; outer block 
   IBRION =      1    ionic relax: 0-MD 1-quasi-New 2-CG
   NFREE  =      0    steps in history (QN), initial steepest desc. (CG)
   ISIF   =      2    stress and relaxation
   IWAVPR =     11    prediction:  0-non 1-charg 2-wave 3-comb
   ISYM   =      0    0-nonsym 1-usesym 2-fastsym
   LCORR  =      T    Harris-Foulkes like correction to forces

   POTIM  = 0.2000    time-step for ionic-motion
   TEIN   =    0.0    initial temperature
   TEBEG  =    0.0;   TEEND  =   0.0 temperature during run
   SMASS  =  -3.00    Nose mass-parameter (am)
   estimated Nose-frequenzy (Omega)   =  0.10E-29 period in steps =****** mass=  -0.216E-26a.u.
   SCALEE = 1.0000    scale energy and forces
   NPACO  =    256;   APACO  = 16.0  distance and # of slots for P.C.
   PSTRESS=    0.0 pullay stress

  Mass of Ions in am
   POMASS = 195.08 16.00
  Ionic Valenz
   ZVAL   =  10.00  6.00
  Atomic Wigner-Seitz radii
   RWIGS  =  -1.00 -1.00
  virtual crystal weights 
   VCA    =   1.00  1.00
   NELECT =     652.0000    total number of electrons
   NUPDOWN=      -1.0000    fix difference up-down

 DOS related values:
   EMIN   =  10.00;   EMAX   =-10.00  energy-range for DOS
   EFERMI =   0.00
   ISMEAR =     0;   SIGMA  =   0.10  broadening in eV -4-tet -1-fermi 0-gaus

 Electronic relaxation 2 (details)
   IALGO  =     68    algorithm
   LDIAG  =      T    sub-space diagonalisation (order eigenvalues)
   LSUBROT=      F    optimize rotation matrix (better conditioning)
   TURBO    =      0    0=normal 1=particle mesh
   IRESTART =      0    0=no restart 2=restart with 2 vectors
   NREBOOT  =      0    no. of reboots
   NMIN     =      0    reboot dimension
   EREF     =   0.00    reference energy to select bands
   IMIX   =      4    mixing-type and parameters
     AMIX     =   0.40;   BMIX     =  1.00
     AMIX_MAG =   1.60;   BMIX_MAG =  1.00
     AMIN     =   0.10
     WC   =   100.;   INIMIX=   1;  MIXPRE=   1;  MAXMIX= -45

 Intra band minimization:
   WEIMIN = 0.0010     energy-eigenvalue tresh-hold
   EBREAK =  0.63E-09  absolut break condition
   DEPER  =   0.30     relativ break condition  

   TIME   =   0.40     timestep for ELM

  volume/ion in A,a.u.               =      41.30       278.74
  Fermi-wavevector in a.u.,A,eV,Ry     =   1.016192  1.920325 14.050008  1.032646
  Thomas-Fermi vector in A             =   2.149522
 
 Write flags
   LWAVE        =      F    write WAVECAR
   LDOWNSAMPLE  =      F    k-point downsampling of WAVECAR
   LCHARG       =      F    write CHGCAR
   LVTOT        =      F    write LOCPOT, total local potential
   LVHAR        =      F    write LOCPOT, Hartree potential only
   LELF         =      F    write electronic localiz. function (ELF)
   LORBIT       =      0    0 simple, 1 ext, 2 COOP (PROOUT), +10 PAW based schemes


 Dipole corrections
   LMONO  =      F    monopole corrections only (constant potential shift)
   LDIPOL =      T    correct potential (dipole corrections)
   IDIPOL =      3    1-x, 2-y, 3-z, 4-all directions 
   EPSILON=  1.0000000 bulk dielectric constant

 Exchange correlation treatment:
   GGA     =    PE    GGA type
   LEXCH   =     8    internal setting for exchange type
   VOSKOWN=      0    Vosko Wilk Nusair interpolation
   LHFCALC =     F    Hartree Fock is set to
   LHFONE  =     F    Hartree Fock one center treatment
   AEXX    =    0.0000 exact exchange contribution

 Linear response parameters
   LEPSILON=     F    determine dielectric tensor
   LRPA    =     F    only Hartree local field effects (RPA)
   LNABLA  =     F    use nabla operator in PAW spheres
   LVEL    =     F    velocity operator in full k-point grid
   LINTERFAST=   F  fast interpolation
   KINTER  =     0    interpolate to denser k-point grid
   CSHIFT  =0.1000    complex shift for real part using Kramers Kronig
   OMEGAMAX=  -1.0    maximum frequency
   DEG_THRESHOLD= 0.2000000E-02 threshold for treating states as degnerate
   RTIME   =   -0.100 relaxation time in fs
  (WPLASMAI=    0.000 imaginary part of plasma frequency in eV, 0.658/RTIME)
   DFIELD  = 0.0000000 0.0000000 0.0000000 field for delta impulse in time
 
 Orbital magnetization related:
   ORBITALMAG=     F  switch on orbital magnetization
   LCHIMAG   =     F  perturbation theory with respect to B field
   DQ        =  0.001000  dq finite difference perturbation B field
   LLRAUG    =     F  two centre corrections for induced B field



--------------------------------------------------------------------------------------------------------


 quasi-Newton-method for relaxation of ions
   using selective dynamics as specified on POSCAR
   WARNING: If single coordinates had been selected the selection of coordinates
            is made according to the corresponding   d i r e c t   coordinates!
            Don't support selection of single cartesian coordinates -- sorry ...
  !
 charge density and potential will be updated during run
 non-spin polarized calculation
 RMM-DIIS sequential band-by-band and
  variant of blocked Davidson during initial phase
 perform sub-space diagonalisation
    before iterative eigenvector-optimisation
 modified Broyden-mixing scheme, WC =      100.0
 initial mixing is a Kerker type mixing with AMIX =  0.4000 and BMIX =      1.0000
 Hartree-type preconditioning will be used
 using additional bands           70
 real space projection scheme for non local part
 use partial core corrections
 calculate Harris-corrections to forces 
   (improved forces if not selfconsistent)
 use gradient corrections 
 use of overlap-Matrix (Vanderbilt PP)
 Gauss-broadening in eV      SIGMA  =   0.10


--------------------------------------------------------------------------------------------------------


  energy-cutoff  :      450.00
  volume of cell :     2726.12
      direct lattice vectors                 reciprocal lattice vectors
     9.717792020  0.000000000  0.000000000     0.102904034  0.000000000  0.000000000
     0.000000000 11.221139680  0.000000000     0.000000000  0.089117508  0.000000000
     0.000000000  0.000000000 25.000000000     0.000000000  0.000000000  0.040000000

  length of vectors
     9.717792020 11.221139680 25.000000000     0.102904034  0.089117508  0.040000000


 
 k-points in units of 2pi/SCALE and weight: K-Spacing Value to Generate K-Mesh: 0.03
   0.00000000  0.00000000  0.00000000       0.111
   0.03430134  0.00000000  0.00000000       0.222
   0.00000000  0.02970584  0.00000000       0.222
   0.03430134  0.02970584  0.00000000       0.222
  -0.03430134  0.02970584  0.00000000       0.222
 
 k-points in reciprocal lattice and weights: K-Spacing Value to Generate K-Mesh: 0.03
   0.00000000  0.00000000  0.00000000       0.111
   0.33333333  0.00000000  0.00000000       0.222
   0.00000000  0.33333333  0.00000000       0.222
   0.33333333  0.33333333  0.00000000       0.222
  -0.33333333  0.33333333  0.00000000       0.222
 
 position of ions in fractional coordinates (direct lattice) 
   0.00000000  0.00000000  0.00000000
   0.33333333  0.00000000  0.09162022
   0.16796074  0.00091016  0.18010523
   0.25000000  0.12500000  0.00000000
   0.08333333  0.12500000  0.09162022
   0.41781226  0.12712392  0.18161270
   0.99857355  0.99850050  0.27057426
   0.24549476  0.11811992  0.27119512
   0.00000000  0.25000000  0.00000000
   0.33333333  0.25000000  0.09162022
   0.16778475  0.25048781  0.18046637
   0.25000000  0.37500000  0.00000000
   0.08333333  0.37500000  0.09162022
   0.41634451  0.37499406  0.18126370
   0.99710930  0.24759907  0.27003164
   0.23763139  0.37499510  0.27169443
   0.00000000  0.50000000  0.00000000
   0.33333333  0.50000000  0.09162022
   0.16778847  0.49950749  0.18046658
   0.25000000  0.62500000  0.00000000
   0.08333333  0.62500000  0.09162022
   0.41781049  0.62286719  0.18161411
   0.99710342  0.50238739  0.27003239
   0.24549100  0.63186285  0.27119695
   0.00000000  0.75000000  0.00000000
   0.33333333  0.75000000  0.09162022
   0.16796086  0.74908540  0.18010605
   0.25000000  0.87500000  0.00000000
   0.08333333  0.87500000  0.09162022
   0.41675653  0.87499636  0.17962467
   0.99857232  0.75149152  0.27057347
   0.24902888  0.87499562  0.27062141
   0.50000000  0.00000000  0.00000000
   0.83333333  0.00000000  0.09162022
   0.66681913  0.99993043  0.17966427
   0.75000000  0.12500000  0.00000000
   0.58333333  0.12500000  0.09162022
   0.91711322  0.12494108  0.17947609
   0.50172025  0.99740176  0.27022005
   0.75283428  0.12229596  0.27033348
   0.50000000  0.25000000  0.00000000
   0.83333333  0.25000000  0.09162022
   0.66505365  0.24995339  0.18105507
   0.75000000  0.37500000  0.00000000
   0.58333333  0.37500000  0.09162022
   0.91706297  0.37499879  0.17923145
   0.50769775  0.24864455  0.27336181
   0.75697266  0.37499715  0.26962517
   0.50000000  0.50000000  0.00000000
   0.83333333  0.50000000  0.09162022
   0.66504843  0.50003831  0.18105621
   0.75000000  0.62500000  0.00000000
   0.58333333  0.62500000  0.09162022
   0.91710952  0.62505194  0.17947652
   0.50769163  0.50133242  0.27336595
   0.75282844  0.62769187  0.27033286
   0.50000000  0.75000000  0.00000000
   0.83333333  0.75000000  0.09162022
   0.66681520  0.75007086  0.17966349
   0.75000000  0.87500000  0.00000000
   0.58333333  0.87500000  0.09162022
   0.91808430  0.87499592  0.17945014
   0.50171351  0.75257989  0.27022173
   0.75148919  0.87499185  0.27026620
   0.47500000  0.46250000  0.34891254
   0.37500000  0.31250000  0.33258073
 
 position of ions in cartesian coordinates  (Angst):
   0.00000000  0.00000000  0.00000000
   3.23926402  0.00000000  2.29050552
   1.63220753  0.01021305  4.50263064
   2.42944800  1.40264246  0.00000000
   0.80981602  1.40264246  2.29050552
   4.06021269  1.42647526  4.54031741
   9.70393010 11.20431354  6.76435641
   2.38566701  1.32544007  6.77987789
   0.00000000  2.80528492  0.00000000
   3.23926402  2.80528492  2.29050552
   1.63049727  2.81075867  4.51165936
   2.42944800  4.20792738  0.00000000
   0.80981602  4.20792738  2.29050552
   4.04594935  4.20786072  4.53159259
   9.68970083  2.77834371  6.75079108
   2.30925245  4.20787242  6.79236075
   0.00000000  5.61056984  0.00000000
   3.23926402  5.61056984  2.29050552
   1.63053342  5.60504335  4.51166462
   2.42944800  7.01321230  0.00000000
   0.80981602  7.01321230  2.29050552
   4.06019542  6.98927971  4.54035285
   9.68964369  5.63735907  6.75080969
   2.38563045  7.09022130  6.77992370
   0.00000000  8.41585476  0.00000000
   3.23926402  8.41585476  2.29050552
   1.63220870  8.40559192  4.50265125
   2.42944800  9.81849722  0.00000000
   0.80981602  9.81849722  2.29050552
   4.04995330  9.81845641  4.49061664
   9.70391807  8.43259127  6.76433673
   2.42001090  9.81844804  6.76553526
   4.85889601  0.00000000  0.00000000
   8.09816003  0.00000000  2.29050552
   6.48000958 11.22035902  4.49160686
   7.28834401  1.40264246  0.00000000
   5.66871203  1.40264246  2.29050552
   8.91231556  1.40198135  4.48690221
   4.87561307 11.19198450  6.75550113
   7.31588697  1.37230009  6.75833691
   4.85889601  2.80528492  0.00000000
   8.09816003  2.80528492  2.29050552
   6.46285307  2.80476186  4.52637666
   7.28834401  4.20792738  0.00000000
   5.66871203  4.20792738  2.29050552
   8.91182725  4.20791384  4.48078631
   4.93370118  2.79007520  6.83404527
   7.35610286  4.20789543  6.74062916
   4.85889601  5.61056984  0.00000000
   8.09816003  5.61056984  2.29050552
   6.46280232  5.61099972  4.52640524
   7.28834401  7.01321230  0.00000000
   5.66871203  7.01321230  2.29050552
   8.91227956  7.01379508  4.48691291
   4.93364163  5.62552114  6.83414864
   7.31583017  7.04341812  6.75832154
   4.85889601  8.41585476  0.00000000
   8.09816003  8.41585476  2.29050552
   6.47997140  8.41664992  4.49158727
   7.28834401  9.81849722  0.00000000
   5.66871203  9.81849722  2.29050552
   8.92175231  9.81845138  4.48625342
   4.87554759  8.44480408  6.75554315
   7.30281563  9.81840575  6.75665493
   4.61595121  5.18977710  8.72281345
   3.64417201  3.50660615  8.31451817
 


--------------------------------------------------------------------------------------------------------


 k-point  1 :   0.0000 0.0000 0.0000  plane waves:   59125
 k-point  2 :   0.3333 0.0000 0.0000  plane waves:   59104
 k-point  3 :   0.0000 0.3333 0.0000  plane waves:   59065
 k-point  4 :   0.3333 0.3333 0.0000  plane waves:   59114
 k-point  5 :  -0.3333 0.3333 0.0000  plane waves:   59114

 maximum and minimum number of plane-waves per node :     14800    14739

 maximum number of plane-waves:     59125
 maximum index in each direction: 
   IXMAX=   17   IYMAX=   19   IZMAX=   43
   IXMIN=  -17   IYMIN=  -19   IZMIN=  -43


 real space projection operators:
  total allocation   :      17872.45 KBytes
  max/ min on nodes  :       4658.89       4274.61


 parallel 3D FFT for wavefunctions:
    minimum data exchange during FFTs selected (reduces bandwidth)
 parallel 3D FFT for charge:
    minimum data exchange during FFTs selected (reduces bandwidth)


 total amount of memory used by VASP MPI-rank0    94719. kBytes
=======================================================================

   base      :      30000. kBytes
   nonlr-proj:       8030. kBytes
   fftplans  :       6518. kBytes
   grid      :      10054. kBytes
   one-center:        264. kBytes
   wavefun   :      39853. kBytes
 
     INWAV:  cpu time    0.0000: real time    0.0000
 Broyden mixing: mesh for mixing (old mesh)
   NGX = 33   NGY = 39   NGZ = 87
  (NGX  =100   NGY  =120   NGZ  =280)
  gives a total of 111969 points

 initial charge density was supplied:
 charge density of overlapping atoms calculated
 number of electron     652.0000000 magnetization 
 keeping initial charge density in first step


--------------------------------------------------------------------------------------------------------


 Maximum index for non-local projection operator          594
 Maximum index for augmentation-charges         1044 (set IRDMAX)


--------------------------------------------------------------------------------------------------------


 First call to EWALD:  gamma=   0.127
 Maximum number of real-space cells 4x 3x 2
 Maximum number of reciprocal cells 2x 2x 5

    FEWALD:  cpu time    0.0026: real time    0.0033


--------------------------------------- Iteration      1(   1)  ---------------------------------------


    POTLOK:  cpu time    0.0627: real time    0.0630
    SETDIJ:  cpu time    0.0071: real time    0.0071
     EDDAV:  cpu time   15.1991: real time   15.2063
       DOS:  cpu time    0.0011: real time    0.0011
    --------------------------------------------
      LOOP:  cpu time   15.2701: real time   15.2775

 eigenvalue-minimisations  :  3960
 total energy-change (2. order) : 0.4277099E+04  (-0.2671627E+05)
 number of electron     652.0000000 magnetization 
 augmentation part      652.0000000 magnetization 

 DIPCOR: dipole corrections for dipol
 direction  3 min pos   167,
 dipolmoment           0.000000      0.000000     -0.000388 electrons x Angstroem
 Tr[quadrupol]    -12521.111386

 energy correction for charged system         0.000000 eV
 dipol+quadrupol energy correction           -0.000000 eV
 added-field ion interaction          0.019552 eV  (added to PSCEN)


 Free energy of the ion-electron system (eV)
  ---------------------------------------------------
  alpha Z        PSCENC =      1466.13051082
  Ewald energy   TEWEN  =    248609.21675799
  -Hartree energ DENC   =   -298567.46326340
  -exchange      EXHF   =         0.00000000
  -V(xc)+E(xc)   XCENC  =       272.83432573
  PAW double counting   =     45245.00522118   -43438.47517393
  entropy T*S    EENTRO =        -0.15966306
  eigenvalues    EBANDS =      3162.13323204
  atomic energy  EATOM  =     47527.87699037
  Solvation  Ediel_sol  =         0.00000000
  ---------------------------------------------------
  free energy    TOTEN  =      4277.09893774 eV

  energy without entropy =     4277.25860080  energy(sigma->0) =     4277.17876927


--------------------------------------------------------------------------------------------------------




--------------------------------------- Iteration      1(   2)  ---------------------------------------


     EDDAV:  cpu time   16.9919: real time   16.9960
       DOS:  cpu time    0.0009: real time    0.0048
    --------------------------------------------
      LOOP:  cpu time   16.9929: real time   17.0008

 eigenvalue-minimisations  :  4668
 total energy-change (2. order) :-0.4344185E+04  (-0.3996924E+04)
 number of electron     652.0000000 magnetization 
 augmentation part      652.0000000 magnetization 

 DIPCOR: dipole corrections for dipol
 direction  3 min pos   167,
 dipolmoment           0.000000      0.000000     -0.000388 electrons x Angstroem
 Tr[quadrupol]    -12521.111386

 energy correction for charged system         0.000000 eV
 dipol+quadrupol energy correction           -0.000000 eV
 added-field ion interaction          0.019552 eV  (added to PSCEN)


 Free energy of the ion-electron system (eV)
  ---------------------------------------------------
  alpha Z        PSCENC =      1466.13051082
  Ewald energy   TEWEN  =    248609.21675799
  -Hartree energ DENC   =   -298567.46326340
  -exchange      EXHF   =         0.00000000
  -V(xc)+E(xc)   XCENC  =       272.83432573
  PAW double counting   =     45245.00522118   -43438.47517393
  entropy T*S    EENTRO =        -0.27560057
  eigenvalues    EBANDS =     -1181.93585978
  atomic energy  EATOM  =     47527.87699037
  Solvation  Ediel_sol  =         0.00000000
  ---------------------------------------------------
  free energy    TOTEN  =       -67.08609159 eV

  energy without entropy =      -66.81049102  energy(sigma->0) =      -66.94829131


--------------------------------------------------------------------------------------------------------




--------------------------------------- Iteration      1(   3)  ---------------------------------------


     EDDAV:  cpu time   17.0534: real time   17.0567
       DOS:  cpu time    0.0010: real time    0.0010
    --------------------------------------------
      LOOP:  cpu time   17.0544: real time   17.0577

 eigenvalue-minimisations  :  4680
 total energy-change (2. order) :-0.3282299E+03  (-0.2954424E+03)
 number of electron     652.0000000 magnetization 
 augmentation part      652.0000000 magnetization 

 DIPCOR: dipole corrections for dipol
 direction  3 min pos   167,
 dipolmoment           0.000000      0.000000     -0.000388 electrons x Angstroem
 Tr[quadrupol]    -12521.111386

 energy correction for charged system         0.000000 eV
 dipol+quadrupol energy correction           -0.000000 eV
 added-field ion interaction          0.019552 eV  (added to PSCEN)


 Free energy of the ion-electron system (eV)
  ---------------------------------------------------
  alpha Z        PSCENC =      1466.13051082
  Ewald energy   TEWEN  =    248609.21675799
  -Hartree energ DENC   =   -298567.46326340
  -exchange      EXHF   =         0.00000000
  -V(xc)+E(xc)   XCENC  =       272.83432573
  PAW double counting   =     45245.00522118   -43438.47517393
  entropy T*S    EENTRO =        -0.53605391
  eigenvalues    EBANDS =     -1509.90529034
  atomic energy  EATOM  =     47527.87699037
  Solvation  Ediel_sol  =         0.00000000
  ---------------------------------------------------
  free energy    TOTEN  =      -395.31597549 eV

  energy without entropy =     -394.77992158  energy(sigma->0) =     -395.04794853


--------------------------------------------------------------------------------------------------------




--------------------------------------- Iteration      1(   4)  ---------------------------------------


     EDDAV:  cpu time   18.0680: real time   18.0740
       DOS:  cpu time    0.0009: real time    0.0009
    --------------------------------------------
      LOOP:  cpu time   18.0690: real time   18.0749

 eigenvalue-minimisations  :  4992
 total energy-change (2. order) :-0.1515439E+02  (-0.1435500E+02)
 number of electron     652.0000000 magnetization 
 augmentation part      652.0000000 magnetization 

 DIPCOR: dipole corrections for dipol
 direction  3 min pos   167,
 dipolmoment           0.000000      0.000000     -0.000388 electrons x Angstroem
 Tr[quadrupol]    -12521.111386

 energy correction for charged system         0.000000 eV
 dipol+quadrupol energy correction           -0.000000 eV
 added-field ion interaction          0.019552 eV  (added to PSCEN)


 Free energy of the ion-electron system (eV)
  ---------------------------------------------------
  alpha Z        PSCENC =      1466.13051082
  Ewald energy   TEWEN  =    248609.21675799
  -Hartree energ DENC   =   -298567.46326340
  -exchange      EXHF   =         0.00000000
  -V(xc)+E(xc)   XCENC  =       272.83432573
  PAW double counting   =     45245.00522118   -43438.47517393
  entropy T*S    EENTRO =        -0.55921752
  eigenvalues    EBANDS =     -1525.03651744
  atomic energy  EATOM  =     47527.87699037
  Solvation  Ediel_sol  =         0.00000000
  ---------------------------------------------------
  free energy    TOTEN  =      -410.47036621 eV

  energy without entropy =     -409.91114869  energy(sigma->0) =     -410.19075745


--------------------------------------------------------------------------------------------------------




--------------------------------------- Iteration      1(   5)  ---------------------------------------


     EDDAV:  cpu time   17.5189: real time   17.5256
       DOS:  cpu time    0.0011: real time    0.0011
    CHARGE:  cpu time    0.4066: real time    0.4068
    MIXING:  cpu time    0.0027: real time    0.0030
    --------------------------------------------
      LOOP:  cpu time   17.9293: real time   17.9365

 eigenvalue-minimisations  :  4944
 total energy-change (2. order) :-0.4203054E+00  (-0.4182928E+00)
 number of electron     651.9999894 magnetization 
 augmentation part      187.1011787 magnetization 

 DIPCOR: dipole corrections for dipol
 direction  3 min pos   167,
 dipolmoment           0.000000      0.000000     -0.000388 electrons x Angstroem
 Tr[quadrupol]    -12521.111386

 energy correction for charged system         0.000000 eV
 dipol+quadrupol energy correction           -0.000000 eV
 added-field ion interaction          0.019552 eV  (added to PSCEN)


 Broyden mixing:
  rms(total) = 0.86787E+01    rms(broyden)= 0.86785E+01
  rms(prec ) = 0.88112E+01
  weight for this iteration     100.00

 Free energy of the ion-electron system (eV)
  ---------------------------------------------------
  alpha Z        PSCENC =      1466.13051082
  Ewald energy   TEWEN  =    248609.21675799
  -Hartree energ DENC   =   -298567.46326340
  -exchange      EXHF   =         0.00000000
  -V(xc)+E(xc)   XCENC  =       272.83432573
  PAW double counting   =     45245.00522118   -43438.47517393
  entropy T*S    EENTRO =        -0.55987218
  eigenvalues    EBANDS =     -1525.45616813
  atomic energy  EATOM  =     47527.87699037
  Solvation  Ediel_sol  =         0.00000000
  ---------------------------------------------------
  free energy    TOTEN  =      -410.89067156 eV

  energy without entropy =     -410.33079938  energy(sigma->0) =     -410.61073547


--------------------------------------------------------------------------------------------------------




--------------------------------------- Iteration      1(   6)  ---------------------------------------


    POTLOK:  cpu time    0.0567: real time    0.0586
    SETDIJ:  cpu time    0.0070: real time    0.0070
    EDDIAG:  cpu time    2.5781: real time    2.5786
  RMM-DIIS:  cpu time    6.7094: real time    6.7107
    ORTHCH:  cpu time    0.9913: real time    0.9915
       DOS:  cpu time    0.0012: real time    0.0012
    CHARGE:  cpu time    0.3958: real time    0.3958
    MIXING:  cpu time    0.0023: real time    0.0025
    --------------------------------------------
      LOOP:  cpu time   10.7418: real time   10.7458

 eigenvalue-minimisations  :  3977
 total energy-change (2. order) :-0.4254407E+01  (-0.8174443E+01)
 number of electron     651.9999863 magnetization 
 augmentation part      199.7103789 magnetization 

 DIPCOR: dipole corrections for dipol
 direction  3 min pos   185,
 dipolmoment           0.000000      0.000000      0.649039 electrons x Angstroem
 Tr[quadrupol]    -12507.885222

 energy correction for charged system         0.000000 eV
 dipol+quadrupol energy correction           -0.013982 eV
 added-field ion interaction         12.418061 eV  (added to PSCEN)


 Broyden mixing:
  rms(total) = 0.75080E+01    rms(broyden)= 0.75071E+01
  rms(prec ) = 0.82265E+01
  weight for this iteration     100.00

 eigenvalues of (default mixing * dielectric matrix)
  average eigenvalue GAMMA=   0.7336
  0.7336

 Free energy of the ion-electron system (eV)
  ---------------------------------------------------
  alpha Z        PSCENC =      1478.51503794
  Ewald energy   TEWEN  =    248609.21675799
  -Hartree energ DENC   =   -297717.87480262
  -exchange      EXHF   =         0.00000000
  -V(xc)+E(xc)   XCENC  =       259.03961139
  PAW double counting   =     49976.68993602   -48266.49518687
  entropy T*S    EENTRO =        -0.54467708
  eigenvalues    EBANDS =     -2281.56874589
  atomic energy  EATOM  =     47527.87699037
  Solvation  Ediel_sol  =         0.00000000
  ---------------------------------------------------
  free energy    TOTEN  =      -415.14507874 eV

  energy without entropy =     -414.60040166  energy(sigma->0) =     -414.87274020


--------------------------------------------------------------------------------------------------------




--------------------------------------- Iteration      1(   7)  ---------------------------------------


    POTLOK:  cpu time    0.0527: real time    0.0530
    SETDIJ:  cpu time    0.0069: real time    0.0069
    EDDIAG:  cpu time    2.5432: real time    2.5446
  RMM-DIIS:  cpu time    6.7395: real time    6.7405
    ORTHCH:  cpu time    0.9946: real time    0.9948
       DOS:  cpu time    0.0010: real time    0.0010
    CHARGE:  cpu time    0.4031: real time    0.4032
    MIXING:  cpu time    0.0024: real time    0.0024
    --------------------------------------------
      LOOP:  cpu time   10.7435: real time   10.7464

 eigenvalue-minimisations  :  4040
 total energy-change (2. order) :-0.9628174E+02  (-0.2082769E+02)
 number of electron     651.9999884 magnetization 
 augmentation part      193.4866158 magnetization 

 DIPCOR: dipole corrections for dipol
 direction  3 min pos   184,
 dipolmoment           0.000000      0.000000     -3.476793 electrons x Angstroem
 Tr[quadrupol]    -12525.371663

 energy correction for charged system         0.000000 eV
 dipol+quadrupol energy correction           -0.401214 eV
 added-field ion interaction        -53.085931 eV  (added to PSCEN)


 Broyden mixing:
  rms(total) = 0.83555E+01    rms(broyden)= 0.83547E+01
  rms(prec ) = 0.11305E+02
  weight for this iteration     100.00

 eigenvalues of (default mixing * dielectric matrix)
  average eigenvalue GAMMA=   0.7783
  1.3173  0.2394

 Free energy of the ion-electron system (eV)
  ---------------------------------------------------
  alpha Z        PSCENC =      1412.62381382
  Ewald energy   TEWEN  =    248609.21675799
  -Hartree energ DENC   =   -298236.78349530
  -exchange      EXHF   =         0.00000000
  -V(xc)+E(xc)   XCENC  =       252.82874804
  PAW double counting   =     52011.07940588   -50319.20440876
  entropy T*S    EENTRO =        -0.35900292
  eigenvalues    EBANDS =     -1768.70562744
  atomic energy  EATOM  =     47527.87699037
  Solvation  Ediel_sol  =         0.00000000
  ---------------------------------------------------
  free energy    TOTEN  =      -511.42681832 eV

  energy without entropy =     -511.06781540  energy(sigma->0) =     -511.24731686


--------------------------------------------------------------------------------------------------------




--------------------------------------- Iteration      1(   8)  ---------------------------------------


    POTLOK:  cpu time    0.0507: real time    0.0507
    SETDIJ:  cpu time    0.0069: real time    0.0069
    EDDIAG:  cpu time    2.5374: real time    2.5379
  RMM-DIIS:  cpu time    6.7043: real time    6.7054
    ORTHCH:  cpu time    0.9938: real time    0.9940
       DOS:  cpu time    0.0013: real time    0.0012
    CHARGE:  cpu time    0.4030: real time    0.4032
    MIXING:  cpu time    0.0025: real time    0.0025
    --------------------------------------------
      LOOP:  cpu time   10.6998: real time   10.7019

 eigenvalue-minimisations  :  3998
 total energy-change (2. order) :-0.6812413E+02  (-0.2129251E+02)
 number of electron     651.9999883 magnetization 
 augmentation part      192.6862208 magnetization 

 DIPCOR: dipole corrections for dipol
 direction  3 min pos   178,
 dipolmoment           0.000000      0.000000      3.963446 electrons x Angstroem
 Tr[quadrupol]    -12530.105858

 energy correction for charged system         0.000000 eV
 dipol+quadrupol energy correction           -0.521391 eV
 added-field ion interaction        -31.380059 eV  (added to PSCEN)


 Broyden mixing:
  rms(total) = 0.96581E+01    rms(broyden)= 0.96579E+01
  rms(prec ) = 0.12930E+02
  weight for this iteration     100.00

 eigenvalues of (default mixing * dielectric matrix)
  average eigenvalue GAMMA=   0.9030
  2.2536  0.3176  0.1379

 Free energy of the ion-electron system (eV)
  ---------------------------------------------------
  alpha Z        PSCENC =      1434.20950779
  Ewald energy   TEWEN  =    248609.21675799
  -Hartree energ DENC   =   -298275.19376056
  -exchange      EXHF   =         0.00000000
  -V(xc)+E(xc)   XCENC  =       249.79395880
  PAW double counting   =     53779.14988143   -52111.45865624
  entropy T*S    EENTRO =        -0.34815554
  eigenvalues    EBANDS =     -1792.79747016
  atomic energy  EATOM  =     47527.87699037
  Solvation  Ediel_sol  =         0.00000000
  ---------------------------------------------------
  free energy    TOTEN  =      -579.55094612 eV

  energy without entropy =     -579.20279058  energy(sigma->0) =     -579.37686835


--------------------------------------------------------------------------------------------------------




--------------------------------------- Iteration      1(   9)  ---------------------------------------


    POTLOK:  cpu time    0.0514: real time    0.0514
    SETDIJ:  cpu time    0.0070: real time    0.0070
    EDDIAG:  cpu time    2.5726: real time    2.5730
  RMM-DIIS:  cpu time    6.7005: real time    6.7018
    ORTHCH:  cpu time    1.0019: real time    1.0021
       DOS:  cpu time    0.0012: real time    0.0012
    CHARGE:  cpu time    0.4063: real time    0.4064
    MIXING:  cpu time    0.0020: real time    0.0045
    --------------------------------------------
      LOOP:  cpu time   10.7429: real time   10.7475

 eigenvalue-minimisations  :  3963
 total energy-change (2. order) : 0.1610557E+03  (-0.4925806E+01)
 number of electron     651.9999888 magnetization 
 augmentation part      200.0619522 magnetization 

 DIPCOR: dipole corrections for dipol
 direction  3 min pos   180,
 dipolmoment           0.000000      0.000000      0.108752 electrons x Angstroem
 Tr[quadrupol]    -12525.341119

 energy correction for charged system         0.000000 eV
 dipol+quadrupol energy correction           -0.000393 eV
 added-field ion interaction         -0.020521 eV  (added to PSCEN)


 Broyden mixing:
  rms(total) = 0.48864E+01    rms(broyden)= 0.48863E+01
  rms(prec ) = 0.57407E+01
  weight for this iteration     100.00

 eigenvalues of (default mixing * dielectric matrix)
  average eigenvalue GAMMA=   0.7610
  1.9623  0.4726  0.4726  0.1367

 Free energy of the ion-electron system (eV)
  ---------------------------------------------------
  alpha Z        PSCENC =      1466.09004464
  Ewald energy   TEWEN  =    248609.21675799
  -Hartree energ DENC   =   -297927.94401706
  -exchange      EXHF   =         0.00000000
  -V(xc)+E(xc)   XCENC  =       244.38808821
  PAW double counting   =     57754.67004056   -56145.21373740
  entropy T*S    EENTRO =        -0.53631669
  eigenvalues    EBANDS =     -1947.04313815
  atomic energy  EATOM  =     47527.87699037
  Solvation  Ediel_sol  =         0.00000000
  ---------------------------------------------------
  free energy    TOTEN  =      -418.49528754 eV

  energy without entropy =     -417.95897085  energy(sigma->0) =     -418.22712920


--------------------------------------------------------------------------------------------------------




--------------------------------------- Iteration      1(  10)  ---------------------------------------


    POTLOK:  cpu time    0.0542: real time    0.0541
    SETDIJ:  cpu time    0.0070: real time    0.0070
    EDDIAG:  cpu time    2.5919: real time    2.5923
  RMM-DIIS:  cpu time    6.8019: real time    6.8032
    ORTHCH:  cpu time    1.0021: real time    1.0023
       DOS:  cpu time    0.0010: real time    0.0086
    CHARGE:  cpu time    0.3979: real time    0.3979
    MIXING:  cpu time    0.0025: real time    0.0025
    --------------------------------------------
      LOOP:  cpu time   10.8584: real time   10.8678

 eigenvalue-minimisations  :  3965
 total energy-change (2. order) : 0.1556436E+02  (-0.5570376E+01)
 number of electron     651.9999877 magnetization 
 augmentation part      200.6213307 magnetization 

 DIPCOR: dipole corrections for dipol
 direction  3 min pos   178,
 dipolmoment           0.000000      0.000000     -0.743233 electrons x Angstroem
 Tr[quadrupol]    -12516.771724

 energy correction for charged system         0.000000 eV
 dipol+quadrupol energy correction           -0.018334 eV
 added-field ion interaction          5.884448 eV  (added to PSCEN)


 Broyden mixing:
  rms(total) = 0.39383E+01    rms(broyden)= 0.39382E+01
  rms(prec ) = 0.48471E+01
  weight for this iteration     100.00

 eigenvalues of (default mixing * dielectric matrix)
  average eigenvalue GAMMA=   0.7164
  2.0288  0.7731  0.3931  0.1385  0.2488

 Free energy of the ion-electron system (eV)
  ---------------------------------------------------
  alpha Z        PSCENC =      1471.97707168
  Ewald energy   TEWEN  =    248609.21675799
  -Hartree energ DENC   =   -297734.99055049
  -exchange      EXHF   =         0.00000000
  -V(xc)+E(xc)   XCENC  =       247.79683449
  PAW double counting   =     57292.59499994   -55670.45672981
  entropy T*S    EENTRO =        -0.57944358
  eigenvalues    EBANDS =     -2146.36685485
  atomic energy  EATOM  =     47527.87699037
  Solvation  Ediel_sol  =         0.00000000
  ---------------------------------------------------
  free energy    TOTEN  =      -402.93092426 eV

  energy without entropy =     -402.35148068  energy(sigma->0) =     -402.64120247


--------------------------------------------------------------------------------------------------------




--------------------------------------- Iteration      1(  11)  ---------------------------------------


    POTLOK:  cpu time    0.0543: real time    0.0553
    SETDIJ:  cpu time    0.0070: real time    0.0070
    EDDIAG:  cpu time    2.5626: real time    2.5627
  RMM-DIIS:  cpu time    6.7036: real time    6.7049
    ORTHCH:  cpu time    1.0053: real time    1.0056
       DOS:  cpu time    0.0012: real time    0.0012
    CHARGE:  cpu time    0.3964: real time    0.3964
    MIXING:  cpu time    0.0028: real time    0.0028
    --------------------------------------------
      LOOP:  cpu time   10.7332: real time   10.7359

 eigenvalue-minimisations  :  3979
 total energy-change (2. order) : 0.1732284E+02  (-0.1356860E+01)
 number of electron     651.9999867 magnetization 
 augmentation part      200.2092959 magnetization 

 DIPCOR: dipole corrections for dipol
 direction  3 min pos   186,
 dipolmoment           0.000000      0.000000      0.305456 electrons x Angstroem
 Tr[quadrupol]    -12517.084355

 energy correction for charged system         0.000000 eV
 dipol+quadrupol energy correction           -0.003097 eV
 added-field ion interaction          7.024676 eV  (added to PSCEN)


 Broyden mixing:
  rms(total) = 0.23706E+01    rms(broyden)= 0.23699E+01
  rms(prec ) = 0.30970E+01
  weight for this iteration     100.00

 eigenvalues of (default mixing * dielectric matrix)
  average eigenvalue GAMMA=   0.6574
  2.0904  0.6737  0.3847  0.3847  0.1407  0.2702

 Free energy of the ion-electron system (eV)
  ---------------------------------------------------
  alpha Z        PSCENC =      1473.13253754
  Ewald energy   TEWEN  =    248609.21675799
  -Hartree energ DENC   =   -297795.86123554
  -exchange      EXHF   =         0.00000000
  -V(xc)+E(xc)   XCENC  =       250.20068083
  PAW double counting   =     57544.59988855   -55920.06952199
  entropy T*S    EENTRO =        -0.55893481
  eigenvalues    EBANDS =     -2074.14524255
  atomic energy  EATOM  =     47527.87699037
  Solvation  Ediel_sol  =         0.00000000
  ---------------------------------------------------
  free energy    TOTEN  =      -385.60807962 eV

  energy without entropy =     -385.04914481  energy(sigma->0) =     -385.32861222


--------------------------------------------------------------------------------------------------------




--------------------------------------- Iteration      1(  12)  ---------------------------------------


    POTLOK:  cpu time    0.0550: real time    0.0562
    SETDIJ:  cpu time    0.0069: real time    0.0069
    EDDIAG:  cpu time    2.5806: real time    2.5816
  RMM-DIIS:  cpu time    6.5792: real time    6.5800
    ORTHCH:  cpu time    1.0070: real time    1.0072
       DOS:  cpu time    0.0012: real time    0.0012
    CHARGE:  cpu time    0.4024: real time    0.4026
    MIXING:  cpu time    0.0028: real time    0.0028
    --------------------------------------------
      LOOP:  cpu time   10.6350: real time   10.6385

 eigenvalue-minimisations  :  3983
 total energy-change (2. order) : 0.3949527E+01  (-0.3544681E+00)
 number of electron     651.9999870 magnetization 
 augmentation part      200.1442055 magnetization 

 DIPCOR: dipole corrections for dipol
 direction  3 min pos   189,
 dipolmoment           0.000000      0.000000      0.088806 electrons x Angstroem
 Tr[quadrupol]    -12517.721216

 energy correction for charged system         0.000000 eV
 dipol+quadrupol energy correction           -0.000262 eV
 added-field ion interaction          3.071835 eV  (added to PSCEN)


 Broyden mixing:
  rms(total) = 0.13266E+01    rms(broyden)= 0.13264E+01
  rms(prec ) = 0.15222E+01
  weight for this iteration     100.00

 eigenvalues of (default mixing * dielectric matrix)
  average eigenvalue GAMMA=   0.6414
  2.0646  0.6987  0.6987  0.4061  0.2902  0.1409  0.1910

 Free energy of the ion-electron system (eV)
  ---------------------------------------------------
  alpha Z        PSCENC =      1469.18253165
  Ewald energy   TEWEN  =    248609.21675799
  -Hartree energ DENC   =   -297821.71259010
  -exchange      EXHF   =         0.00000000
  -V(xc)+E(xc)   XCENC  =       250.18123905
  PAW double counting   =     57664.60022842   -56041.17881692
  entropy T*S    EENTRO =        -0.62283583
  eigenvalues    EBANDS =     -2039.20205769
  atomic energy  EATOM  =     47527.87699037
  Solvation  Ediel_sol  =         0.00000000
  ---------------------------------------------------
  free energy    TOTEN  =      -381.65855307 eV

  energy without entropy =     -381.03571723  energy(sigma->0) =     -381.34713515


--------------------------------------------------------------------------------------------------------




--------------------------------------- Iteration      1(  13)  ---------------------------------------


    POTLOK:  cpu time    0.0555: real time    0.0564
    SETDIJ:  cpu time    0.0069: real time    0.0085
    EDDIAG:  cpu time    2.5853: real time    2.5858
  RMM-DIIS:  cpu time    6.6922: real time    6.6934
    ORTHCH:  cpu time    1.0015: real time    1.0017
       DOS:  cpu time    0.0012: real time    0.0012
    CHARGE:  cpu time    0.4052: real time    0.4054
    MIXING:  cpu time    0.0032: real time    0.0032
    --------------------------------------------
      LOOP:  cpu time   10.7510: real time   10.7555

 eigenvalue-minimisations  :  3986
 total energy-change (2. order) : 0.2169545E+00  (-0.1431004E+00)
 number of electron     651.9999871 magnetization 
 augmentation part      200.0494061 magnetization 

 DIPCOR: dipole corrections for dipol
 direction  3 min pos   193,
 dipolmoment           0.000000      0.000000     -0.015921 electrons x Angstroem
 Tr[quadrupol]    -12517.233137

 energy correction for charged system         0.000000 eV
 dipol+quadrupol energy correction           -0.000008 eV
 added-field ion interaction         -0.796825 eV  (added to PSCEN)


 Broyden mixing:
  rms(total) = 0.12234E+01    rms(broyden)= 0.12233E+01
  rms(prec ) = 0.15110E+01
  weight for this iteration     100.00

 eigenvalues of (default mixing * dielectric matrix)
  average eigenvalue GAMMA=   0.5985
  2.0687  0.7158  0.7158  0.4397  0.2703  0.2703  0.1406  0.1669

 Free energy of the ion-electron system (eV)
  ---------------------------------------------------
  alpha Z        PSCENC =      1465.31412468
  Ewald energy   TEWEN  =    248609.21675799
  -Hartree energ DENC   =   -297814.94562681
  -exchange      EXHF   =         0.00000000
  -V(xc)+E(xc)   XCENC  =       250.22661539
  PAW double counting   =     57653.12100025   -56028.87029300
  entropy T*S    EENTRO =        -0.62219686
  eigenvalues    EBANDS =     -2042.75897060
  atomic energy  EATOM  =     47527.87699037
  Solvation  Ediel_sol  =         0.00000000
  ---------------------------------------------------
  free energy    TOTEN  =      -381.44159860 eV

  energy without entropy =     -380.81940174  energy(sigma->0) =     -381.13050017


--------------------------------------------------------------------------------------------------------




--------------------------------------- Iteration      1(  14)  ---------------------------------------


    POTLOK:  cpu time    0.0557: real time    0.0574
    SETDIJ:  cpu time    0.0068: real time    0.0068
    EDDIAG:  cpu time    2.5416: real time    2.5430
  RMM-DIIS:  cpu time    6.6330: real time    6.6341
    ORTHCH:  cpu time    0.9930: real time    0.9933
       DOS:  cpu time    0.0013: real time    0.0013
    CHARGE:  cpu time    0.3988: real time    0.3988
    MIXING:  cpu time    0.0033: real time    0.0032
    --------------------------------------------
      LOOP:  cpu time   10.6334: real time   10.6379

 eigenvalue-minimisations  :  3983
 total energy-change (2. order) : 0.9266055E+00  (-0.5590098E-01)
 number of electron     651.9999870 magnetization 
 augmentation part      200.1134347 magnetization 

 DIPCOR: dipole corrections for dipol
 direction  3 min pos   193,
 dipolmoment           0.000000      0.000000      0.099564 electrons x Angstroem
 Tr[quadrupol]    -12517.327437

 energy correction for charged system         0.000000 eV
 dipol+quadrupol energy correction           -0.000329 eV
 added-field ion interaction          4.982927 eV  (added to PSCEN)


 Broyden mixing:
  rms(total) = 0.68528E+00    rms(broyden)= 0.68525E+00
  rms(prec ) = 0.76216E+00
  weight for this iteration     100.00

 eigenvalues of (default mixing * dielectric matrix)
  average eigenvalue GAMMA=   0.6130
  2.1270  0.8334  0.8334  0.5398  0.3345  0.3345  0.2167  0.1405  0.1570

 Free energy of the ion-electron system (eV)
  ---------------------------------------------------
  alpha Z        PSCENC =      1471.09355646
  Ewald energy   TEWEN  =    248609.21675799
  -Hartree energ DENC   =   -297812.53058734
  -exchange      EXHF   =         0.00000000
  -V(xc)+E(xc)   XCENC  =       250.30220068
  PAW double counting   =     57666.74138276   -56042.25095632
  entropy T*S    EENTRO =        -0.67022058
  eigenvalues    EBANDS =     -2050.29411710
  atomic energy  EATOM  =     47527.87699037
  Solvation  Ediel_sol  =         0.00000000
  ---------------------------------------------------
  free energy    TOTEN  =      -380.51499307 eV

  energy without entropy =     -379.84477249  energy(sigma->0) =     -380.17988278


--------------------------------------------------------------------------------------------------------




--------------------------------------- Iteration      1(  15)  ---------------------------------------


    POTLOK:  cpu time    0.0562: real time    0.0565
    SETDIJ:  cpu time    0.0068: real time    0.0068
    EDDIAG:  cpu time    2.5374: real time    2.5385
  RMM-DIIS:  cpu time    6.8770: real time    6.8782
    ORTHCH:  cpu time    1.0063: real time    1.0065
       DOS:  cpu time    0.0013: real time    0.0013
    CHARGE:  cpu time    0.4014: real time    0.4014
    MIXING:  cpu time    0.0033: real time    0.0033
    --------------------------------------------
      LOOP:  cpu time   10.8897: real time   10.8926

 eigenvalue-minimisations  :  3987
 total energy-change (2. order) : 0.4299875E-02  (-0.2770918E-01)
 number of electron     651.9999871 magnetization 
 augmentation part      200.0967117 magnetization 

 DIPCOR: dipole corrections for dipol
 direction  3 min pos   193,
 dipolmoment           0.000000      0.000000      0.182541 electrons x Angstroem
 Tr[quadrupol]    -12517.689318

 energy correction for charged system         0.000000 eV
 dipol+quadrupol energy correction           -0.001106 eV
 added-field ion interaction          9.135731 eV  (added to PSCEN)


 Broyden mixing:
  rms(total) = 0.59945E+00    rms(broyden)= 0.59942E+00
  rms(prec ) = 0.69766E+00
  weight for this iteration     100.00

 eigenvalues of (default mixing * dielectric matrix)
  average eigenvalue GAMMA=   0.6281
  2.1365  1.0164  1.0164  0.4903  0.4310  0.4310  0.2341  0.2341  0.1408  0.1502

 Free energy of the ion-electron system (eV)
  ---------------------------------------------------
  alpha Z        PSCENC =      1475.24558344
  Ewald energy   TEWEN  =    248609.21675799
  -Hartree energ DENC   =   -297817.22454944
  -exchange      EXHF   =         0.00000000
  -V(xc)+E(xc)   XCENC  =       250.24241250
  PAW double counting   =     57726.18338673   -56102.04060644
  entropy T*S    EENTRO =        -0.67568183
  eigenvalues    EBANDS =     -2049.33498651
  atomic energy  EATOM  =     47527.87699037
  Solvation  Ediel_sol  =         0.00000000
  ---------------------------------------------------
  free energy    TOTEN  =      -380.51069319 eV

  energy without entropy =     -379.83501137  energy(sigma->0) =     -380.17285228


--------------------------------------------------------------------------------------------------------




--------------------------------------- Iteration      1(  16)  ---------------------------------------


    POTLOK:  cpu time    0.0559: real time    0.0562
    SETDIJ:  cpu time    0.0069: real time    0.0069
    EDDIAG:  cpu time    2.5614: real time    2.5649
  RMM-DIIS:  cpu time    6.8811: real time    6.8824
    ORTHCH:  cpu time    1.0043: real time    1.0044
       DOS:  cpu time    0.0010: real time    0.0057
    CHARGE:  cpu time    0.4020: real time    0.4020
    MIXING:  cpu time    0.0034: real time    0.0034
    --------------------------------------------
      LOOP:  cpu time   10.9160: real time   10.9260

 eigenvalue-minimisations  :  3983
 total energy-change (2. order) : 0.3730990E-01  (-0.2771565E-01)
 number of electron     651.9999872 magnetization 
 augmentation part      199.9697639 magnetization 

 DIPCOR: dipole corrections for dipol
 direction  3 min pos   193,
 dipolmoment           0.000000      0.000000      0.146938 electrons x Angstroem
 Tr[quadrupol]    -12517.778121

 energy correction for charged system         0.000000 eV
 dipol+quadrupol energy correction           -0.000717 eV
 added-field ion interaction          7.353904 eV  (added to PSCEN)


 Broyden mixing:
  rms(total) = 0.54300E+00    rms(broyden)= 0.54294E+00
  rms(prec ) = 0.63132E+00
  weight for this iteration     100.00

 eigenvalues of (default mixing * dielectric matrix)
  average eigenvalue GAMMA=   0.6793
  2.0170  1.4296  1.4296  0.6010  0.6010  0.3313  0.3313  0.2440  0.1962  0.1407
  0.1499

 Free energy of the ion-electron system (eV)
  ---------------------------------------------------
  alpha Z        PSCENC =      1473.46414586
  Ewald energy   TEWEN  =    248609.21675799
  -Hartree energ DENC   =   -297823.05004839
  -exchange      EXHF   =         0.00000000
  -V(xc)+E(xc)   XCENC  =       250.24322072
  PAW double counting   =     57734.97368059   -56110.33608710
  entropy T*S    EENTRO =        -0.67861479
  eigenvalues    EBANDS =     -2042.18342855
  atomic energy  EATOM  =     47527.87699037
  Solvation  Ediel_sol  =         0.00000000
  ---------------------------------------------------
  free energy    TOTEN  =      -380.47338330 eV

  energy without entropy =     -379.79476850  energy(sigma->0) =     -380.13407590


--------------------------------------------------------------------------------------------------------




--------------------------------------- Iteration      1(  17)  ---------------------------------------


    POTLOK:  cpu time    0.0673: real time    0.0677
    SETDIJ:  cpu time    0.0067: real time    0.0067
    EDDIAG:  cpu time    2.5819: real time    2.5823
  RMM-DIIS:  cpu time    6.6219: real time    6.6229
    ORTHCH:  cpu time    1.0064: real time    1.0072
       DOS:  cpu time    0.0013: real time    0.0013
    CHARGE:  cpu time    0.4010: real time    0.4012
    MIXING:  cpu time    0.0034: real time    0.0034
    --------------------------------------------
      LOOP:  cpu time   10.6900: real time   10.6956

 eigenvalue-minimisations  :  3989
 total energy-change (2. order) : 0.6657766E-01  (-0.2815899E-01)
 number of electron     651.9999872 magnetization 
 augmentation part      199.8518411 magnetization 

 DIPCOR: dipole corrections for dipol
 direction  3 min pos   193,
 dipolmoment           0.000000      0.000000      0.195959 electrons x Angstroem
 Tr[quadrupol]    -12517.947610

 energy correction for charged system         0.000000 eV
 dipol+quadrupol energy correction           -0.001275 eV
 added-field ion interaction          9.807308 eV  (added to PSCEN)


 Broyden mixing:
  rms(total) = 0.48032E+00    rms(broyden)= 0.48029E+00
  rms(prec ) = 0.57963E+00
  weight for this iteration     100.00

 eigenvalues of (default mixing * dielectric matrix)
  average eigenvalue GAMMA=   0.6493
  1.6807  1.6807  1.5599  0.6317  0.6317  0.3455  0.3455  0.2320  0.2320  0.1408
  0.1515  0.1595

 Free energy of the ion-electron system (eV)
  ---------------------------------------------------
  alpha Z        PSCENC =      1475.91699173
  Ewald energy   TEWEN  =    248609.21675799
  -Hartree energ DENC   =   -297832.04417897
  -exchange      EXHF   =         0.00000000
  -V(xc)+E(xc)   XCENC  =       250.50821982
  PAW double counting   =     57706.06510786   -56079.63557592
  entropy T*S    EENTRO =        -0.67802748
  eigenvalues    EBANDS =     -2037.63309103
  atomic energy  EATOM  =     47527.87699037
  Solvation  Ediel_sol  =         0.00000000
  ---------------------------------------------------
  free energy    TOTEN  =      -380.40680564 eV

  energy without entropy =     -379.72877816  energy(sigma->0) =     -380.06779190


--------------------------------------------------------------------------------------------------------




--------------------------------------- Iteration      1(  18)  ---------------------------------------


    POTLOK:  cpu time    0.0549: real time    0.0578
    SETDIJ:  cpu time    0.0069: real time    0.0069
    EDDIAG:  cpu time    2.5771: real time    2.5777
  RMM-DIIS:  cpu time    6.7806: real time    6.7819
    ORTHCH:  cpu time    1.0093: real time    1.0095
       DOS:  cpu time    0.0014: real time    0.0014
    CHARGE:  cpu time    0.4047: real time    0.4049
    MIXING:  cpu time    0.0033: real time    0.0063
    --------------------------------------------
      LOOP:  cpu time   10.8381: real time   10.8434

 eigenvalue-minimisations  :  3983
 total energy-change (2. order) : 0.1573782E+00  (-0.7480283E-02)
 number of electron     651.9999872 magnetization 
 augmentation part      199.8147995 magnetization 

 DIPCOR: dipole corrections for dipol
 direction  3 min pos   194,
 dipolmoment           0.000000      0.000000      0.166095 electrons x Angstroem
 Tr[quadrupol]    -12517.763563

 energy correction for charged system         0.000000 eV
 dipol+quadrupol energy correction           -0.000916 eV
 added-field ion interaction          8.954499 eV  (added to PSCEN)


 Broyden mixing:
  rms(total) = 0.20393E+00    rms(broyden)= 0.20392E+00
  rms(prec ) = 0.23200E+00
  weight for this iteration     100.00

 eigenvalues of (default mixing * dielectric matrix)
  average eigenvalue GAMMA=   0.6486
  1.8818  1.8818  1.3981  0.6518  0.6518  0.3791  0.3791  0.2662  0.2662  0.2077
  0.1408  0.1496  0.1775

 Free energy of the ion-electron system (eV)
  ---------------------------------------------------
  alpha Z        PSCENC =      1475.06454159
  Ewald energy   TEWEN  =    248609.21675799
  -Hartree energ DENC   =   -297830.96161638
  -exchange      EXHF   =         0.00000000
  -V(xc)+E(xc)   XCENC  =       250.64256147
  PAW double counting   =     57677.59806328   -56050.32616959
  entropy T*S    EENTRO =        -0.68845993
  eigenvalues    EBANDS =     -2038.67209625
  atomic energy  EATOM  =     47527.87699037
  Solvation  Ediel_sol  =         0.00000000
  ---------------------------------------------------
  free energy    TOTEN  =      -380.24942746 eV

  energy without entropy =     -379.56096753  energy(sigma->0) =     -379.90519749


--------------------------------------------------------------------------------------------------------




--------------------------------------- Iteration      1(  19)  ---------------------------------------


    POTLOK:  cpu time    0.0562: real time    0.0562
    SETDIJ:  cpu time    0.0069: real time    0.0069
    EDDIAG:  cpu time    2.5691: real time    2.5696
  RMM-DIIS:  cpu time    6.7560: real time    6.7572
    ORTHCH:  cpu time    1.0137: real time    1.0140
       DOS:  cpu time    0.0013: real time    0.0013
    CHARGE:  cpu time    0.4046: real time    0.4047
    MIXING:  cpu time    0.0040: real time    0.0039
    --------------------------------------------
      LOOP:  cpu time   10.8118: real time   10.8138

 eigenvalue-minimisations  :  3984
 total energy-change (2. order) : 0.1288002E-01  (-0.3374361E-02)
 number of electron     651.9999871 magnetization 
 augmentation part      199.8148365 magnetization 

 DIPCOR: dipole corrections for dipol
 direction  3 min pos   193,
[...]
      3.23926      0.00000      2.29051         0.056838      0.066074     -0.288108
      1.61127     -0.01287      4.47246        -0.004584      0.033741      0.037975
      2.42945      1.40264      0.00000        -0.028215     -0.071826      0.119108
      0.80982      1.40264      2.29051        -0.028380      0.094482     -0.265474
      4.05321      1.40688      4.51758        -0.004529      0.003337     -0.002533
      9.69624     11.21209      6.76417        -0.014042      0.008936      0.005422
      2.37012      1.32213      6.71557         0.028246      0.022481      0.073215
      0.00000      2.80528      0.00000         0.082545     -0.007109      0.079702
      3.23926      2.80528      2.29051         0.035800      0.068544     -0.058631
      1.62490      2.81388      4.51399         0.007389     -0.010412      0.005234
      2.42945      4.20793      0.00000        -0.033307     -0.019040      0.179912
      0.80982      4.20793      2.29051         0.036914      0.058491     -0.008115
      4.05422      4.21929      4.56340         0.026258     -0.003652     -0.012970
      9.70228      2.77856      6.76472        -0.011867     -0.018688      0.004463
      2.42291      4.19417      6.88632         0.000031      0.055633     -0.034883
      0.00000      5.61057      0.00000         0.066211      0.006425      0.114558
      3.23926      5.61057      2.29051         0.014451     -0.047661      0.125665
      1.64612      5.56263      4.55653         0.022588      0.009539     -0.027198
      2.42945      7.01321      0.00000        -0.013525      0.039117      0.194469
      0.80982      7.01321      2.29051         0.043784     -0.167889     -0.125552
      4.06916      7.00284      4.54605         0.013921      0.019250     -0.019083
      9.72987      5.60407      6.76981         0.005609     -0.028186      0.001700
      2.39355      7.04621      6.75200         0.024115      0.017050     -0.003098
      0.00000      8.41585      0.00000        -0.017689      0.095856      0.109100
      3.23926      8.41585      2.29051         0.060155     -0.137993     -0.157718
      1.62209      8.40038      4.48570         0.002431      0.006194     -0.013152
      2.42945      9.81850      0.00000        -0.037339      0.017484      0.045852
      0.80982      9.81850      2.29051         0.014046     -0.078255     -0.237233
      4.03876      9.81336      4.49041        -0.008162      0.027598     -0.006142
      9.70961      8.42641      6.76407         0.026942     -0.009788      0.003717
      2.41234      9.80919      6.76715        -0.025813     -0.004315     -0.020174
      4.85890      0.00000      0.00000        -0.009513     -0.006684      0.167576
      8.09816      0.00000      2.29051         0.000986      0.013991     -0.188637
      6.47642     11.21752      4.49532         0.003875     -0.002017      0.008989
      7.28834      1.40264      0.00000         0.018574      0.005090      0.171077
      5.66871      1.40264      2.29051        -0.058444      0.127179     -0.049745
      8.90012      1.40572      4.49434        -0.004751     -0.003676     -0.003456
      4.85530     11.19264      6.76184        -0.007060      0.019942     -0.006220
      7.28847      1.38466      6.76501         0.009511     -0.000595      0.014463
      4.85890      2.80528      0.00000         0.017747     -0.026196      0.149114
      8.09816      2.80528      2.29051        -0.141502      0.006479     -0.117383
      6.43450      2.80208      4.54829         0.027223     -0.004898     -0.013204
      7.28834      4.20793      0.00000         0.039321     -0.000310      0.179894
      5.66871      4.20793      2.29051        -0.077101     -0.009748      0.092255
      8.90273      4.20289      4.48844         0.020169     -0.008587      0.001770
      4.89530      2.76743      6.85657         0.048043      0.040657     -0.017197
      7.34393      4.20012      6.74695        -0.006566      0.005297     -0.002645
      4.85890      5.61057      0.00000         0.027538      0.010985      0.158267
      8.09816      5.61057      2.29051        -0.117134     -0.031908     -0.138016
      6.46680      5.61999      4.53818         0.023912      0.015180     -0.012389
      7.28834      7.01321      0.00000         0.037665      0.017150      0.157516
      5.66871      7.01321      2.29051        -0.088582     -0.095890     -0.012982
      8.92838      6.99972      4.49106         0.029918     -0.021611     -0.002361
      4.93764      5.74009      6.83723         0.009735     -0.002452     -0.032681
      7.35422      7.05031      6.75995         0.044157      0.001528     -0.005152
      4.85890      8.41585      0.00000         0.003027      0.023095      0.141148
      8.09816      8.41585      2.29051        -0.032567     -0.050210     -0.206904
      6.48323      8.41866      4.50052         0.022895      0.012123      0.007874
      7.28834      9.81850      0.00000        -0.011495     -0.010619      0.132614
      5.66871      9.81850      2.29051         0.012686     -0.036868     -0.199946
      8.90892      9.81515      4.49348         0.002035     -0.009837     -0.001309
      4.85864      8.48274      6.77378         0.020851      0.035407     -0.033623
      7.29782      9.82667      6.76774         0.015847      0.001333      0.023446
      4.65829      5.20258      8.61191         0.026620      0.039775     -0.125175
      3.77164      3.58903      8.31499        -0.227213     -0.063932     -0.185855
 -----------------------------------------------------------------------------------
    total drift:                                0.006675      0.007642      0.008805


--------------------------------------------------------------------------------------------------------



  FREE ENERGIE OF THE ION-ELECTRON SYSTEM (eV)
  ---------------------------------------------------
  free  energy   TOTEN  =      -415.55765777 eV

  energy  without entropy=     -414.88127441  energy(sigma->0) =     -415.21946609
 
 d Force = 0.2806108E-02[ 0.264E-02, 0.297E-02]  d Energy = 0.2821654E-02-0.155E-04
 d Force =-0.1329199E+02[-0.133E+02,-0.133E+02]  d Ewald  =-0.1329201E+02 0.202E-04


--------------------------------------------------------------------------------------------------------


    POTLOK:  cpu time    0.0993: real time    0.0997


--------------------------------------------------------------------------------------------------------


 NEB: the previous image is higher in energy: F
 NEB: the next image is higher in energy    : F
 NEB: image is at an extrema
 NEB: diff energy (min, max):   415.557658  415.557658

 NEB: Tangent
 ----------------------------------------------
      0.00000      0.00000      0.00000
      0.00000      0.00000      0.00000
     -0.00152      0.00945      0.00862
      0.00000      0.00000      0.00000
      0.00000      0.00000      0.00000
     -0.00932     -0.00503     -0.01450
     -0.01676     -0.00230      0.00207
     -0.01660     -0.04464      0.01846
      0.00000      0.00000      0.00000
      0.00000      0.00000      0.00000
      0.00650      0.01123      0.02039
      0.00000      0.00000      0.00000
      0.00000      0.00000      0.00000
     -0.00108      0.00005      0.01796
     -0.01980     -0.00164     -0.00664
     -0.02984      0.00004      0.06300
      0.00000      0.00000      0.00000
      0.00000      0.00000      0.00000
      0.00648     -0.01119      0.02038
      0.00000      0.00000      0.00000
      0.00000      0.00000      0.00000
     -0.00931      0.00510     -0.01453
     -0.01976      0.00175     -0.00665
     -0.01657      0.04478      0.01843
      0.00000      0.00000      0.00000
      0.00000      0.00000      0.00000
     -0.00152     -0.00941      0.00861
      0.00000      0.00000      0.00000
      0.00000      0.00000      0.00000
     -0.00505      0.00003     -0.00036
     -0.01675      0.00236      0.00209
     -0.01000      0.00004     -0.00100
      0.00000      0.00000      0.00000
      0.00000      0.00000      0.00000
      0.00015      0.00034     -0.00497
      0.00000      0.00000      0.00000
      0.00000      0.00000      0.00000
     -0.00131      0.00312     -0.00223
      0.00889     -0.00140     -0.01193
     -0.00009     -0.00725      0.00590
      0.00000      0.00000      0.00000
      0.00000      0.00000      0.00000
     -0.00207     -0.00071     -0.00110
      0.00000      0.00000      0.00000
      0.00000      0.00000      0.00000
     -0.00638      0.00001      0.00068
      0.04925     -0.00387     -0.00727
     -0.01429      0.00002      0.01478
      0.00000      0.00000      0.00000
      0.00000      0.00000      0.00000
     -0.00203      0.00077     -0.00112
      0.00000      0.00000      0.00000
      0.00000      0.00000      0.00000
     -0.00129     -0.00306     -0.00224
      0.04930      0.00406     -0.00735
     -0.00005      0.00734      0.00591
      0.00000      0.00000      0.00000
      0.00000      0.00000      0.00000
      0.00018     -0.00035     -0.00496
      0.00000      0.00000      0.00000
      0.00000      0.00000      0.00000
      0.00333      0.00003     -0.00403
      0.00893      0.00155     -0.01196
     -0.00008      0.00007     -0.00017
     -0.56650     -0.28996     -0.29121
     -0.56639      0.29021     -0.29125

 NEB: forces: par spring, perp REAL, dneb    12.337913    0.341167    0.000000
 NEB: distance to prev, next image, angle between     2.459369    3.693160   49.378056
 NEB: projections on to tangent (spring, REAL)    12.337913    0.175853

 stress matrix after NEB project (eV)
    -90.10021      1.68402     -0.76044
      1.68402    -91.03539      0.56589
     -0.76044      0.56589     -8.00626
  FORCES: max atom, RMS     0.267631    0.047245
  FORCE total and by dimension    0.383822    0.225863
  Stress total and by dimension  128.362998   91.035391
 Quasi-Newton relaxation of ions (Broydens 2nd method)
  g(Force)  = 0.284E-02   g(Stress)= 0.000E+00

 retain information from N=  3 steps
 eigenvalues of (default step * inverse Hessian matrix)
  average eigenvalue of G=   3.2998
 eigenvalue spectrum of G is  2.1386  2.2221  5.5387


--------------------------------------------------------------------------------------------------------


    WAVPRE:  cpu time    0.0253: real time    0.0253
    FEWALD:  cpu time    0.0014: real time    0.0014

 real space projection operators:
  total allocation   :      17883.23 KBytes
  max/ min on nodes  :       4654.59       4281.39

    ORTHCH:  cpu time    1.8623: real time    1.8627
     LOOP+:  cpu time  135.2986: real time  135.3491


--------------------------------------- Iteration     27(   1)  ---------------------------------------


    POTLOK:  cpu time    0.0585: real time    0.0585
    SETDIJ:  cpu time    0.0070: real time    0.0070
     EDDAV:  cpu time   15.6336: real time   15.6390
       DOS:  cpu time    0.0012: real time    0.0012
    CHARGE:  cpu time    0.4176: real time    0.4176
    MIXING:  cpu time    0.0020: real time    0.0020
    --------------------------------------------
      LOOP:  cpu time   16.1199: real time   16.1252

 eigenvalue-minimisations  :  4080
 total energy-change (2. order) : 0.8157167E-04  (-0.1893024E-03)
 number of electron     651.9999942 magnetization 
 augmentation part      199.7830965 magnetization 

 DIPCOR: dipole corrections for dipol
 direction  3 min pos   193,
 dipolmoment           0.000000      0.000000      0.148789 electrons x Angstroem
 Tr[quadrupol]    -12526.795945

 energy correction for charged system         0.000000 eV
 dipol+quadrupol energy correction           -0.000735 eV
 added-field ion interaction          7.433389 eV  (added to PSCEN)


 Broyden mixing:
  rms(total) = 0.18567E-02    rms(broyden)= 0.18499E-02
  rms(prec ) = 0.20035E-02
  weight for this iteration     100.00

 Free energy of the ion-electron system (eV)
  ---------------------------------------------------
  alpha Z        PSCENC =      1473.54361262
  Ewald energy   TEWEN  =    248505.22004143
  -Hartree energ DENC   =   -297767.49667627
  -exchange      EXHF   =         0.00000000
  -V(xc)+E(xc)   XCENC  =       251.29078862
  PAW double counting   =     57809.89937374   -56182.01709743
  entropy T*S    EENTRO =        -0.67637918
  eigenvalues    EBANDS =     -1998.15613802
  atomic energy  EATOM  =     47527.87699037
  Solvation  Ediel_sol  =         0.00000000
  ---------------------------------------------------
  free energy    TOTEN  =      -380.51548413 eV

  energy without entropy =     -379.83910494  energy(sigma->0) =     -380.17729453


--------------------------------------------------------------------------------------------------------




--------------------------------------- Iteration     27(   2)  ---------------------------------------


    POTLOK:  cpu time    0.0587: real time    0.0591
    SETDIJ:  cpu time    0.0069: real time    0.0093
    EDDIAG:  cpu time    2.7233: real time    2.7240
  RMM-DIIS:  cpu time    7.2684: real time    7.2697
    ORTHCH:  cpu time    1.0095: real time    1.0096
       DOS:  cpu time    0.0012: real time    0.0012
    CHARGE:  cpu time    0.4172: real time    0.4173
    MIXING:  cpu time    0.0023: real time    0.0023
    --------------------------------------------
      LOOP:  cpu time   11.4876: real time   11.4924

 eigenvalue-minimisations  :  3993
 total energy-change (2. order) :-0.3381784E-04  (-0.8246281E-05)
 number of electron     651.9999942 magnetization 
 augmentation part      199.7812925 magnetization 

 DIPCOR: dipole corrections for dipol
 direction  3 min pos   192,
 dipolmoment           0.000000      0.000000      0.147935 electrons x Angstroem
 Tr[quadrupol]    -12526.771235

 energy correction for charged system         0.000000 eV
 dipol+quadrupol energy correction           -0.000726 eV
 added-field ion interaction          6.819074 eV  (added to PSCEN)


 Broyden mixing:
  rms(total) = 0.61043E-02    rms(broyden)= 0.61029E-02
  rms(prec ) = 0.76424E-02
  weight for this iteration     100.00

 eigenvalues of (default mixing * dielectric matrix)
  average eigenvalue GAMMA=   0.1966
  0.1966

 Free energy of the ion-electron system (eV)
  ---------------------------------------------------
  alpha Z        PSCENC =      1472.92930611
  Ewald energy   TEWEN  =    248505.22004143
  -Hartree energ DENC   =   -297767.58244179
  -exchange      EXHF   =         0.00000000
  -V(xc)+E(xc)   XCENC  =       251.28930839
  PAW double counting   =     57809.86649759   -56181.98252174
  entropy T*S    EENTRO =        -0.67634984
  eigenvalues    EBANDS =     -1997.45634847
  atomic energy  EATOM  =     47527.87699037
  Solvation  Ediel_sol  =         0.00000000
  ---------------------------------------------------
  free energy    TOTEN  =      -380.51551794 eV

  energy without entropy =     -379.83916810  energy(sigma->0) =     -380.17734302


--------------------------------------------------------------------------------------------------------




--------------------------------------- Iteration     27(   3)  ---------------------------------------


    POTLOK:  cpu time    0.0572: real time    0.0575
    SETDIJ:  cpu time    0.0069: real time    0.0069
    EDDIAG:  cpu time    2.7201: real time    2.7206
  RMM-DIIS:  cpu time    7.1100: real time    7.1110
    ORTHCH:  cpu time    1.0015: real time    1.0017
       DOS:  cpu time    0.0012: real time    0.0012
    CHARGE:  cpu time    0.4159: real time    0.4159
    MIXING:  cpu time    0.0024: real time    0.0024
    --------------------------------------------
      LOOP:  cpu time   11.3154: real time   11.3173

 eigenvalue-minimisations  :  3971
 total energy-change (2. order) :-0.7728522E-06  (-0.1815480E-05)
 number of electron     651.9999942 magnetization 
 augmentation part      199.7826381 magnetization 

 DIPCOR: dipole corrections for dipol
 direction  3 min pos   191,
 dipolmoment           0.000000      0.000000      0.149975 electrons x Angstroem
 Tr[quadrupol]    -12526.746396

 energy correction for charged system         0.000000 eV
 dipol+quadrupol energy correction           -0.000747 eV
 added-field ion interaction          6.333549 eV  (added to PSCEN)


 Broyden mixing:
  rms(total) = 0.60685E-02    rms(broyden)= 0.60675E-02
  rms(prec ) = 0.89369E-02
  weight for this iteration     100.00

 eigenvalues of (default mixing * dielectric matrix)
  average eigenvalue GAMMA=   0.1692
  0.2706  0.0679

 Free energy of the ion-electron system (eV)
  ---------------------------------------------------
  alpha Z        PSCENC =      1472.44376087
  Ewald energy   TEWEN  =    248505.22004143
  -Hartree energ DENC   =   -297767.52070971
  -exchange      EXHF   =         0.00000000
  -V(xc)+E(xc)   XCENC  =       251.29013626
  PAW double counting   =     57809.83195196   -56181.94880204
  entropy T*S    EENTRO =        -0.67642082
  eigenvalues    EBANDS =     -1997.03246703
  atomic energy  EATOM  =     47527.87699037
  Solvation  Ediel_sol  =         0.00000000
  ---------------------------------------------------
  free energy    TOTEN  =      -380.51551872 eV

  energy without entropy =     -379.83909789  energy(sigma->0) =     -380.17730830


--------------------------------------------------------------------------------------------------------




--------------------------------------- Iteration     27(   4)  ---------------------------------------


    POTLOK:  cpu time    0.0574: real time    0.0574
    SETDIJ:  cpu time    0.0069: real time    0.0069
    EDDIAG:  cpu time    2.7085: real time    2.7090
  RMM-DIIS:  cpu time    6.3556: real time    6.3564
    ORTHCH:  cpu time    1.0038: real time    1.0040
       DOS:  cpu time    0.0013: real time    0.0012
    CHARGE:  cpu time    0.4120: real time    0.4122
    MIXING:  cpu time    0.0024: real time    0.0024
    --------------------------------------------
      LOOP:  cpu time   10.5477: real time   10.5495

 eigenvalue-minimisations  :  3526
 total energy-change (2. order) : 0.2895654E-04  (-0.6388793E-06)
 number of electron     651.9999942 magnetization 
 augmentation part      199.7827386 magnetization 

 DIPCOR: dipole corrections for dipol
 direction  3 min pos   191,
 dipolmoment           0.000000      0.000000      0.148488 electrons x Angstroem
 Tr[quadrupol]    -12526.742519

 energy correction for charged system         0.000000 eV
 dipol+quadrupol energy correction           -0.000732 eV
 added-field ion interaction          6.270758 eV  (added to PSCEN)


 Broyden mixing:
  rms(total) = 0.20130E-02    rms(broyden)= 0.20127E-02
  rms(prec ) = 0.25209E-02
  weight for this iteration     100.00

 eigenvalues of (default mixing * dielectric matrix)
  average eigenvalue GAMMA=   0.2292
  0.4619  0.1640  0.0617

 Free energy of the ion-electron system (eV)
  ---------------------------------------------------
  alpha Z        PSCENC =      1472.38098440
  Ewald energy   TEWEN  =    248505.22004143
  -Hartree energ DENC   =   -297767.49502982
  -exchange      EXHF   =         0.00000000
  -V(xc)+E(xc)   XCENC  =       251.29038254
  PAW double counting   =     57809.81264675   -56181.92962651
  entropy T*S    EENTRO =        -0.67638140
  eigenvalues    EBANDS =     -1996.99549752
  atomic energy  EATOM  =     47527.87699037
  Solvation  Ediel_sol  =         0.00000000
  ---------------------------------------------------
  free energy    TOTEN  =      -380.51548976 eV

  energy without entropy =     -379.83910836  energy(sigma->0) =     -380.17729906


--------------------------------------------------------------------------------------------------------




--------------------------------------- Iteration     27(   5)  ---------------------------------------


    POTLOK:  cpu time    0.0563: real time    0.0563
    SETDIJ:  cpu time    0.0069: real time    0.0069
    EDDIAG:  cpu time    2.7058: real time    2.7080
