       N       E                     dE             d eps       ncg     rms          rms(c)
DAV:   1     0.427310004290E+04    0.42731E+04   -0.26579E+05  3920   0.127E+03
DAV:   2    -0.558893435731E+02   -0.43290E+04   -0.39951E+04  4640   0.276E+02
DAV:   3    -0.389371703430E+03   -0.33348E+03   -0.30050E+03  4616   0.700E+01
DAV:   4    -0.406174611670E+03   -0.16803E+02   -0.15715E+02  5128   0.142E+01
DAV:   5    -0.406668774649E+03   -0.49416E+00   -0.48943E+00  5312   0.251E+00    0.804E+01
RMM:   6    -0.394557519228E+03    0.12111E+02   -0.76764E+01  3937   0.139E+01    0.617E+01
RMM:   7    -0.487955808578E+03   -0.93398E+02   -0.16001E+02  3946   0.140E+01    0.752E+01
RMM:   8    -0.538830094995E+03   -0.50874E+02   -0.14745E+02  3936   0.122E+01    0.838E+01
RMM:   9    -0.401774559651E+03    0.13706E+03   -0.59608E+01  3941   0.858E+00    0.370E+01
RMM:  10    -0.402802849600E+03   -0.10283E+01   -0.42075E+01  3922   0.802E+00    0.396E+01
RMM:  11    -0.385064109309E+03    0.17739E+02   -0.10310E+01  3928   0.397E+00    0.209E+01
RMM:  12    -0.384441892546E+03    0.62222E+00   -0.51114E+00  3930   0.282E+00    0.212E+01
RMM:  13    -0.380893570297E+03    0.35483E+01   -0.20221E+00  3936   0.166E+00    0.126E+01
RMM:  14    -0.380293142149E+03    0.60043E+00   -0.81519E-01  3936   0.106E+00    0.902E+00
RMM:  15    -0.379922070955E+03    0.37107E+00   -0.16318E-01  3976   0.503E-01    0.582E+00
RMM:  16    -0.379892541733E+03    0.29529E-01   -0.49763E-02  3946   0.290E-01    0.505E+00
RMM:  17    -0.379861612549E+03    0.30929E-01   -0.36862E-02  3933   0.240E-01    0.421E+00
RMM:  18    -0.379851807995E+03    0.98046E-02   -0.99531E-02  3934   0.418E-01    0.314E+00
RMM:  19    -0.379814977344E+03    0.36831E-01   -0.10291E-01  3934   0.405E-01    0.226E+00
RMM:  20    -0.379778138713E+03    0.36839E-01   -0.36305E-02  3934   0.248E-01    0.104E+00
RMM:  21    -0.379773739952E+03    0.43988E-02   -0.31870E-03  3950   0.693E-02    0.803E-01
RMM:  22    -0.379771872227E+03    0.18677E-02   -0.19574E-03  3929   0.549E-02    0.690E-01
RMM:  23    -0.379769578977E+03    0.22932E-02   -0.20982E-03  3934   0.566E-02    0.494E-01
RMM:  24    -0.379768545687E+03    0.10333E-02   -0.17256E-03  3935   0.509E-02    0.416E-01
RMM:  25    -0.379768090123E+03    0.45556E-03   -0.61715E-04  3935   0.321E-02    0.286E-01
RMM:  26    -0.379767913764E+03    0.17636E-03   -0.25066E-04  3941   0.195E-02    0.183E-01
RMM:  27    -0.379768029239E+03   -0.11547E-03   -0.19756E-04  3938   0.173E-02    0.184E-01
RMM:  28    -0.379767981202E+03    0.48037E-04   -0.13236E-04  3943   0.140E-02    0.161E-01
RMM:  29    -0.379767959479E+03    0.21723E-04   -0.89417E-05  3947   0.109E-02    0.113E-01
RMM:  30    -0.379768064600E+03   -0.10512E-03   -0.45022E-05  3960   0.768E-03    0.893E-02
RMM:  31    -0.379768167955E+03   -0.10336E-03   -0.28837E-05  3924   0.603E-03    0.421E-02
RMM:  32    -0.379768235710E+03   -0.67755E-04   -0.97171E-06  3654   0.430E-03    0.406E-02
RMM:  33    -0.379768370035E+03   -0.13433E-03   -0.11351E-05  3690   0.388E-03    0.280E-02
RMM:  34    -0.379768426876E+03   -0.56842E-04   -0.49478E-06  2876   0.262E-03    0.168E-02
RMM:  35    -0.379768522680E+03   -0.95804E-04   -0.63754E-06  3023   0.267E-03    0.149E-02
RMM:  36    -0.379768597852E+03   -0.75172E-04   -0.48739E-06  2759   0.208E-03    0.156E-02
RMM:  37    -0.379768651707E+03   -0.53855E-04   -0.28367E-06  2486   0.158E-03    0.847E-03
RMM:  38    -0.379768692062E+03   -0.40355E-04   -0.23530E-06  2469   0.141E-03    0.521E-03
RMM:  39    -0.379768721365E+03   -0.29303E-04   -0.13010E-06  2279   0.988E-04    0.434E-03
RMM:  40    -0.379768746210E+03   -0.24845E-04   -0.12326E-06  2204   0.870E-04    0.281E-03
RMM:  41    -0.379768757236E+03   -0.11026E-04   -0.47554E-07  1504   0.587E-04    0.265E-03
RMM:  42    -0.379768766746E+03   -0.95102E-05   -0.41576E-07  1464   0.550E-04    0.109E-03
RMM:  43    -0.379768772386E+03   -0.56400E-05   -0.23632E-07  1351   0.466E-04    0.199E-03
RMM:  44    -0.379768782092E+03   -0.97063E-05   -0.70498E-07  2090   0.776E-04    0.193E-02
RMM:  45    -0.379768786369E+03   -0.42770E-05   -0.47264E-07  2033   0.753E-04    0.287E-02
RMM:  46    -0.379768790424E+03   -0.40543E-05   -0.24879E-07  1577   0.538E-04    0.328E-02
RMM:  47    -0.379768791266E+03   -0.84231E-06   -0.90786E-08   996   0.397E-04
   1 F= -.41380932E+03 E0= -.41345508E+03  d E =-.413809E+03
       N       E                     dE             d eps       ncg     rms          rms(c)
DAV:   1    -0.379766467046E+03    0.23234E-02   -0.21572E+00  3976   0.192E+00    0.256E-01
RMM:   2    -0.379781273269E+03   -0.14806E-01   -0.31855E-02  3929   0.306E-01    0.123E+00
RMM:   3    -0.379771198502E+03    0.10075E-01   -0.35780E-03  3977   0.800E-02    0.653E-01
RMM:   4    -0.379768332205E+03    0.28663E-02   -0.77555E-04  3950   0.363E-02    0.192E-01
RMM:   5    -0.379769312029E+03   -0.97982E-03   -0.96302E-04  3951   0.421E-02    0.335E-01
RMM:   6    -0.379768718403E+03    0.59363E-03   -0.33149E-04  3941   0.242E-02    0.181E-01
RMM:   7    -0.379769076598E+03   -0.35819E-03   -0.47490E-04  3934   0.274E-02    0.266E-01
RMM:   8    -0.379768848466E+03    0.22813E-03   -0.22676E-04  3944   0.210E-02    0.131E-01
RMM:   9    -0.379768739428E+03    0.10904E-03   -0.52989E-05  3939   0.985E-03    0.800E-02
RMM:  10    -0.379768704807E+03    0.34621E-04   -0.20055E-05  3922   0.535E-03    0.477E-02
RMM:  11    -0.379768688727E+03    0.16080E-04   -0.11778E-05  3912   0.438E-03    0.158E-02
RMM:  12    -0.379768688673E+03    0.54082E-07   -0.45769E-06  3021   0.282E-03
   2 F= -.41382920E+03 E0= -.41347502E+03  d E =-.198816E-01
       N       E                     dE             d eps       ncg     rms          rms(c)
DAV:   1    -0.379724477583E+03    0.44211E-01   -0.32068E+01  3936   0.741E+00    0.914E-01
RMM:   2    -0.379852221834E+03   -0.12774E+00   -0.43555E-01  3940   0.116E+00    0.334E+00
RMM:   3    -0.379788146549E+03    0.64075E-01   -0.42023E-02  3991   0.279E-01    0.203E+00
RMM:   4    -0.379762888085E+03    0.25258E-01   -0.11681E-02  3941   0.135E-01    0.886E-01
RMM:   5    -0.379764435699E+03   -0.15476E-02   -0.12084E-02  3954   0.148E-01    0.102E+00
RMM:   6    -0.379758811050E+03    0.56246E-02   -0.35951E-03  3948   0.846E-02    0.513E-01
RMM:   7    -0.379764470195E+03   -0.56591E-02   -0.61144E-03  3932   0.986E-02    0.102E+00
RMM:   8    -0.379760184620E+03    0.42856E-02   -0.29545E-03  3945   0.743E-02    0.483E-01
RMM:   9    -0.379758497192E+03    0.16874E-02   -0.73478E-04  3938   0.346E-02    0.272E-01
RMM:  10    -0.379758096685E+03    0.40051E-03   -0.26100E-04  3950   0.196E-02    0.157E-01
RMM:  11    -0.379757934697E+03    0.16199E-03   -0.13336E-04  3932   0.149E-02    0.604E-02
RMM:  12    -0.379757916261E+03    0.18436E-04   -0.59218E-05  3944   0.991E-03    0.444E-02
RMM:  13    -0.379757907557E+03    0.87038E-05   -0.22132E-05  3929   0.597E-03    0.364E-02
RMM:  14    -0.379757899074E+03    0.84838E-05   -0.16574E-05  3908   0.515E-03    0.129E-02
RMM:  15    -0.379757901380E+03   -0.23066E-05   -0.39122E-06  2742   0.271E-03    0.145E-02
RMM:  16    -0.379757902086E+03   -0.70567E-06   -0.16767E-06  2159   0.195E-03
   3 F= -.41389596E+03 E0= -.41354252E+03  d E =-.667566E-01
       N       E                     dE             d eps       ncg     rms          rms(c)
DAV:   1    -0.379671060351E+03    0.86841E-01   -0.50088E+01  3920   0.936E+00    0.114E+00
RMM:   2    -0.379906838937E+03   -0.23578E+00   -0.71805E-01  3967   0.147E+00    0.455E+00
RMM:   3    -0.379762948757E+03    0.14389E+00   -0.66601E-02  3987   0.347E-01    0.214E+00
RMM:   4    -0.379740434415E+03    0.22514E-01   -0.21322E-02  3943   0.182E-01    0.142E+00
RMM:   5    -0.379733235585E+03    0.71988E-02   -0.17097E-02  3955   0.181E-01    0.112E+00
RMM:   6    -0.379727846369E+03    0.53892E-02   -0.47220E-03  3946   0.999E-02    0.584E-01
RMM:   7    -0.379736648739E+03   -0.88024E-02   -0.88753E-03  3932   0.119E-01    0.127E+00
RMM:   8    -0.379729181576E+03    0.74672E-02   -0.44373E-03  3945   0.890E-02    0.587E-01
RMM:   9    -0.379726722942E+03    0.24586E-02   -0.10454E-03  3937   0.408E-02    0.321E-01
RMM:  10    -0.379726123801E+03    0.59914E-03   -0.42126E-04  3955   0.245E-02    0.172E-01
RMM:  11    -0.379725942030E+03    0.18177E-03   -0.17231E-04  3934   0.170E-02    0.625E-02
RMM:  12    -0.379725930617E+03    0.11413E-04   -0.61263E-05  3944   0.102E-02    0.524E-02
RMM:  13    -0.379725915779E+03    0.14838E-04   -0.33572E-05  3927   0.738E-03    0.387E-02
RMM:  14    -0.379725906788E+03    0.89912E-05   -0.18821E-05  3920   0.552E-03    0.195E-02
RMM:  15    -0.379725908540E+03   -0.17526E-05   -0.52970E-06  3218   0.304E-03    0.206E-02
RMM:  16    -0.379725907736E+03    0.80474E-06   -0.21933E-06  2203   0.217E-03
   4 F= -.41396113E+03 E0= -.41360947E+03  d E =-.651654E-01
       N       E                     dE             d eps       ncg     rms          rms(c)
DAV:   1    -0.379587063264E+03    0.13885E+00   -0.67188E+01  3920   0.110E+01    0.137E+00
RMM:   2    -0.379939633634E+03   -0.35257E+00   -0.10206E+00  3985   0.172E+00    0.561E+00
RMM:   3    -0.379714766044E+03    0.22487E+00   -0.94089E-02  3992   0.411E-01    0.247E+00
RMM:   4    -0.379692167015E+03    0.22599E-01   -0.34497E-02  3945   0.226E-01    0.197E+00
RMM:   5    -0.379674083182E+03    0.18084E-01   -0.23258E-02  3962   0.213E-01    0.133E+00
RMM:   6    -0.379667472700E+03    0.66105E-02   -0.63455E-03  3949   0.114E-01    0.745E-01
RMM:   7    -0.379678271602E+03   -0.10799E-01   -0.11287E-02  3932   0.134E-01    0.146E+00
RMM:   8    -0.379668466328E+03    0.98053E-02   -0.61382E-03  3950   0.103E-01    0.682E-01
RMM:   9    -0.379665218437E+03    0.32479E-02   -0.15079E-03  3934   0.496E-02    0.369E-01
RMM:  10    -0.379664488931E+03    0.72951E-03   -0.59825E-04  3953   0.288E-02    0.224E-01
RMM:  11    -0.379664146029E+03    0.34290E-03   -0.25199E-04  3942   0.202E-02    0.703E-02
RMM:  12    -0.379664140777E+03    0.52518E-05   -0.59473E-05  3983   0.996E-03    0.608E-02
RMM:  13    -0.379664124405E+03    0.16372E-04   -0.47443E-05  3932   0.881E-03    0.482E-02
RMM:  14    -0.379664109185E+03    0.15220E-04   -0.24917E-05  3924   0.637E-03    0.247E-02
RMM:  15    -0.379664112415E+03   -0.32301E-05   -0.72501E-06  3753   0.354E-03    0.268E-02
RMM:  16    -0.379664110475E+03    0.19403E-05   -0.25601E-06  2349   0.230E-03    0.138E-02
RMM:  17    -0.379664110119E+03    0.35544E-06   -0.99334E-07  2107   0.150E-03
   5 F= -.41401231E+03 E0= -.41366369E+03  d E =-.511820E-01
       N       E                     dE             d eps       ncg     rms          rms(c)
DAV:   1    -0.379555912086E+03    0.10820E+00   -0.37319E+01  3920   0.828E+00    0.107E+00
RMM:   2    -0.379747452950E+03   -0.19154E+00   -0.59548E-01  3985   0.130E+00    0.412E+00
RMM:   3    -0.379634740982E+03    0.11271E+00   -0.55026E-02  3981   0.314E-01    0.204E+00
RMM:   4    -0.379620822524E+03    0.13918E-01   -0.22916E-02  3943   0.180E-01    0.172E+00
RMM:   5    -0.379606736281E+03    0.14086E-01   -0.13559E-02  3959   0.173E-01    0.102E+00
RMM:   6    -0.379603451636E+03    0.32846E-02   -0.39775E-03  3944   0.888E-02    0.617E-01
RMM:   7    -0.379608533436E+03   -0.50818E-02   -0.60555E-03  3933   0.982E-02    0.105E+00
RMM:   8    -0.379603781867E+03    0.47516E-02   -0.35075E-03  3943   0.766E-02    0.528E-01
RMM:   9    -0.379601907659E+03    0.18742E-02   -0.98459E-04  3936   0.405E-02    0.281E-01
RMM:  10    -0.379601512816E+03    0.39484E-03   -0.31797E-04  3950   0.214E-02    0.179E-01
RMM:  11    -0.379601281420E+03    0.23140E-03   -0.16385E-04  3932   0.162E-02    0.571E-02
RMM:  12    -0.379601274394E+03    0.70259E-05   -0.49993E-05  3954   0.889E-03    0.475E-02
RMM:  13    -0.379601270822E+03    0.35718E-05   -0.24916E-05  3929   0.638E-03    0.433E-02
RMM:  14    -0.379601257472E+03    0.13350E-04   -0.16302E-05  3912   0.520E-03    0.185E-02
RMM:  15    -0.379601258285E+03   -0.81243E-06   -0.36110E-06  2641   0.262E-03
   6 F= -.41403359E+03 E0= -.41368786E+03  d E =-.212798E-01
       N       E                     dE             d eps       ncg     rms          rms(c)
DAV:   1    -0.379539880203E+03    0.61377E-01   -0.13775E+01  3920   0.513E+00    0.697E-01
RMM:   2    -0.379609018238E+03   -0.69138E-01   -0.23702E-01  3993   0.799E-01    0.244E+00
RMM:   3    -0.379572804804E+03    0.36213E-01   -0.21557E-02  3986   0.195E-01    0.136E+00
RMM:   4    -0.379567490542E+03    0.53143E-02   -0.10434E-02  3940   0.119E-01    0.125E+00
RMM:   5    -0.379559868481E+03    0.76221E-02   -0.53422E-03  3953   0.117E-01    0.644E-01
RMM:   6    -0.379559108439E+03    0.76004E-03   -0.18017E-03  3937   0.596E-02    0.437E-01
RMM:   7    -0.379560540037E+03   -0.14316E-02   -0.21923E-03  3937   0.595E-02    0.613E-01
RMM:   8    -0.379559055225E+03    0.14848E-02   -0.13422E-03  3937   0.471E-02    0.333E-01
RMM:   9    -0.379558352229E+03    0.70300E-03   -0.42779E-04  3938   0.269E-02    0.169E-01
RMM:  10    -0.379558227766E+03    0.12446E-03   -0.10984E-04  3948   0.128E-02    0.111E-01
RMM:  11    -0.379558143133E+03    0.84633E-04   -0.60200E-05  3925   0.981E-03    0.453E-02
RMM:  12    -0.379558131130E+03    0.12003E-04   -0.26895E-05  3928   0.640E-03    0.285E-02
RMM:  13    -0.379558133105E+03   -0.19759E-05   -0.93057E-06  3916   0.387E-03    0.316E-02
RMM:  14    -0.379558129112E+03    0.39931E-05   -0.54617E-06  3331   0.306E-03    0.225E-02
RMM:  15    -0.379558126547E+03    0.25649E-05   -0.22210E-06  2187   0.213E-03    0.792E-03
RMM:  16    -0.379558126875E+03   -0.32713E-06   -0.84753E-07  2089   0.136E-03
   7 F= -.41404062E+03 E0= -.41369685E+03  d E =-.702911E-02
       N       E                     dE             d eps       ncg     rms          rms(c)
DAV:   1    -0.379545772159E+03    0.12354E-01   -0.11174E+00  3968   0.153E+00    0.238E-01
RMM:   2    -0.379550553442E+03   -0.47813E-02   -0.23318E-02  4004   0.231E-01    0.607E-01
RMM:   3    -0.379550491181E+03    0.62261E-04   -0.23980E-03  3966   0.641E-02    0.601E-01
RMM:   4    -0.379549058503E+03    0.14327E-02   -0.14162E-03  3939   0.422E-02    0.505E-01
RMM:   5    -0.379547648634E+03    0.14099E-02   -0.54681E-04  3957   0.412E-02    0.209E-01
RMM:   6    -0.379547706229E+03   -0.57595E-04   -0.26257E-04  3933   0.225E-02    0.177E-01
RMM:   7    -0.379547727351E+03   -0.21122E-04   -0.18978E-04  3934   0.177E-02    0.164E-01
RMM:   8    -0.379547664944E+03    0.62407E-04   -0.12387E-04  3937   0.142E-02    0.109E-01
RMM:   9    -0.379547601760E+03    0.63185E-04   -0.49091E-05  3931   0.915E-03    0.507E-02
RMM:  10    -0.379547591821E+03    0.99381E-05   -0.10492E-05  3892   0.413E-03    0.295E-02
RMM:  11    -0.379547587472E+03    0.43494E-05   -0.41055E-06  2826   0.266E-03    0.165E-02
RMM:  12    -0.379547585474E+03    0.19981E-05   -0.21322E-06  2221   0.195E-03    0.661E-03
RMM:  13    -0.379547585870E+03   -0.39607E-06   -0.10711E-06  2099   0.150E-03
   8 F= -.41404255E+03 E0= -.41369935E+03  d E =-.193770E-02
       N       E                     dE             d eps       ncg     rms          rms(c)
DAV:   1    -0.379528164660E+03    0.19421E-01   -0.25820E+00  3920   0.235E+00    0.371E-01
RMM:   2    -0.379538010495E+03   -0.98458E-02   -0.56670E-02  4008   0.350E-01    0.824E-01
RMM:   3    -0.379539675893E+03   -0.16654E-02   -0.58156E-03  3962   0.994E-02    0.921E-01
RMM:   4    -0.379537322175E+03    0.23537E-02   -0.34257E-03  3943   0.660E-02    0.848E-01
RMM:   5    -0.379532734955E+03    0.45872E-02   -0.12600E-03  3952   0.599E-02    0.313E-01
RMM:   6    -0.379532956804E+03   -0.22185E-03   -0.67374E-04  3928   0.362E-02    0.282E-01
RMM:   7    -0.379532904903E+03    0.51902E-04   -0.41603E-04  3933   0.263E-02    0.235E-01
RMM:   8    -0.379532797004E+03    0.10790E-03   -0.28231E-04  3939   0.214E-02    0.163E-01
RMM:   9    -0.379532654275E+03    0.14273E-03   -0.11434E-04  3941   0.140E-02    0.735E-02
RMM:  10    -0.379532632663E+03    0.21612E-04   -0.24383E-05  3921   0.639E-03    0.391E-02
RMM:  11    -0.379532625693E+03    0.69701E-05   -0.89981E-06  3868   0.386E-03    0.236E-02
RMM:  12    -0.379532621370E+03    0.43234E-05   -0.42538E-06  2908   0.252E-03    0.845E-03
RMM:  13    -0.379532622072E+03   -0.70197E-06   -0.20696E-06  2169   0.206E-03
   9 F= -.41404477E+03 E0= -.41370235E+03  d E =-.221234E-02
       N       E                     dE             d eps       ncg     rms          rms(c)
DAV:   1    -0.379533077374E+03   -0.45600E-03   -0.90459E-02  3968   0.442E-01    0.617E-02
RMM:   2    -0.379533491033E+03   -0.41366E-03   -0.20314E-03  4008   0.647E-02    0.186E-01
RMM:   3    -0.379533525310E+03   -0.34277E-04   -0.23596E-04  3964   0.201E-02    0.204E-01
RMM:   4    -0.379533248270E+03    0.27704E-03   -0.78829E-05  3960   0.136E-02    0.644E-02
RMM:   5    -0.379533235282E+03    0.12988E-04   -0.27002E-05  3943   0.680E-03    0.381E-02
RMM:   6    -0.379533241436E+03   -0.61542E-05   -0.19606E-05  3922   0.595E-03    0.376E-02
RMM:   7    -0.379533239229E+03    0.22067E-05   -0.80615E-06  3864   0.365E-03    0.248E-02
RMM:   8    -0.379533241618E+03   -0.23893E-05   -0.78120E-06  3856   0.363E-03    0.239E-02
RMM:   9    -0.379533239004E+03    0.26148E-05   -0.31275E-06  2444   0.244E-03    0.117E-02
RMM:  10    -0.379533238319E+03    0.68470E-06   -0.80368E-07  2054   0.131E-03
  10 F= -.41404545E+03 E0= -.41370301E+03  d E =-.687600E-03
       N       E                     dE             d eps       ncg     rms          rms(c)
DAV:   1    -0.379534270845E+03   -0.10318E-02   -0.18111E+00  3920   0.197E+00    0.271E-01
RMM:   2    -0.379544290309E+03   -0.10019E-01   -0.40198E-02  4005   0.290E-01    0.942E-01
RMM:   3    -0.379542350861E+03    0.19394E-02   -0.47112E-03  3966   0.898E-02    0.834E-01
RMM:   4    -0.379537971183E+03    0.43797E-02   -0.16015E-03  3959   0.591E-02    0.295E-01
RMM:   5    -0.379537488815E+03    0.48237E-03   -0.49639E-04  3955   0.303E-02    0.146E-01
RMM:   6    -0.379537525586E+03   -0.36771E-04   -0.36611E-04  3935   0.256E-02    0.155E-01
RMM:   7    -0.379537472798E+03    0.52788E-04   -0.15797E-04  3939   0.161E-02    0.107E-01
RMM:   8    -0.379537492974E+03   -0.20175E-04   -0.14692E-04  3934   0.159E-02    0.992E-02
RMM:   9    -0.379537447084E+03    0.45890E-04   -0.58703E-05  3931   0.101E-02    0.529E-02
RMM:  10    -0.379537432791E+03    0.14293E-04   -0.11659E-05  3915   0.446E-03    0.244E-02
RMM:  11    -0.379537429097E+03    0.36939E-05   -0.46742E-06  3088   0.278E-03    0.141E-02
RMM:  12    -0.379537428078E+03    0.10190E-05   -0.29500E-06  2287   0.241E-03    0.800E-03
RMM:  13    -0.379537427975E+03    0.10346E-06   -0.15082E-06  2066   0.182E-03
  11 F= -.41404788E+03 E0= -.41370524E+03  d E =-.242607E-02
       N       E                     dE             d eps       ncg     rms          rms(c)
DAV:   1    -0.379538955107E+03   -0.15270E-02   -0.60953E-01  3920   0.115E+00    0.163E-01
RMM:   2    -0.379542873238E+03   -0.39181E-02   -0.14037E-02  4006   0.170E-01    0.602E-01
RMM:   3    -0.379541670662E+03    0.12026E-02   -0.16977E-03  3970   0.542E-02    0.490E-01
RMM:   4    -0.379540230589E+03    0.14401E-02   -0.59367E-04  3951   0.359E-02    0.187E-01
RMM:   5    -0.379540028485E+03    0.20210E-03   -0.16788E-04  3961   0.181E-02    0.828E-02
RMM:   6    -0.379540062179E+03   -0.33694E-04   -0.12555E-04  3932   0.150E-02    0.948E-02
RMM:   7    -0.379540045160E+03    0.17019E-04   -0.56026E-05  3938   0.960E-03    0.659E-02
RMM:   8    -0.379540055817E+03   -0.10657E-04   -0.49861E-05  3935   0.917E-03    0.590E-02
RMM:   9    -0.379540040480E+03    0.15337E-04   -0.20244E-05  3924   0.590E-03    0.305E-02
RMM:  10    -0.379540035793E+03    0.46873E-05   -0.36998E-06  2657   0.263E-03    0.141E-02
RMM:  11    -0.379540034615E+03    0.11775E-05   -0.14954E-06  2095   0.168E-03    0.795E-03
RMM:  12    -0.379540034449E+03    0.16564E-06   -0.92081E-07  2051   0.139E-03
  12 F= -.41404891E+03 E0= -.41370614E+03  d E =-.103069E-02
       N       E                     dE             d eps       ncg     rms          rms(c)
DAV:   1    -0.379541589612E+03   -0.15550E-02   -0.52563E-01  3920   0.107E+00    0.152E-01
RMM:   2    -0.379545236226E+03   -0.36466E-02   -0.12174E-02  4009   0.158E-01    0.583E-01
RMM:   3    -0.379543816742E+03    0.14195E-02   -0.14813E-03  3970   0.505E-02    0.439E-01
RMM:   4    -0.379542727617E+03    0.10891E-02   -0.53232E-04  3949   0.335E-02    0.189E-01
RMM:   5    -0.379542504825E+03    0.22279E-03   -0.13954E-04  3964   0.171E-02    0.750E-02
RMM:   6    -0.379542545244E+03   -0.40419E-04   -0.10438E-04  3932   0.137E-02    0.876E-02
RMM:   7    -0.379542535684E+03    0.95600E-05   -0.50809E-05  3932   0.917E-03    0.652E-02
RMM:   8    -0.379542541618E+03   -0.59342E-05   -0.42596E-05  3928   0.847E-03    0.518E-02
RMM:   9    -0.379542529662E+03    0.11955E-04   -0.16417E-05  3915   0.534E-03    0.262E-02
RMM:  10    -0.379542526341E+03    0.33209E-05   -0.26456E-06  2337   0.226E-03    0.133E-02
RMM:  11    -0.379542525291E+03    0.10500E-05   -0.12247E-06  2077   0.152E-03    0.707E-03
RMM:  12    -0.379542525157E+03    0.13436E-06   -0.73467E-07  2047   0.125E-03
  13 F= -.41404964E+03 E0= -.41370675E+03  d E =-.731553E-03
       N       E                     dE             d eps       ncg     rms          rms(c)
DAV:   1    -0.379543771348E+03   -0.12461E-02   -0.17828E-01  3936   0.620E-01    0.843E-02
RMM:   2    -0.379544941150E+03   -0.11698E-02   -0.39970E-03  4010   0.922E-02    0.327E-01
RMM:   3    -0.379544421273E+03    0.51988E-03   -0.45955E-04  3972   0.283E-02    0.229E-01
RMM:   4    -0.379544146210E+03    0.27506E-03   -0.16557E-04  3950   0.185E-02    0.111E-01
RMM:   5    -0.379544065034E+03    0.81177E-04   -0.42265E-05  3959   0.962E-03    0.402E-02
RMM:   6    -0.379544084382E+03   -0.19348E-04   -0.31042E-05  3927   0.752E-03    0.483E-02
RMM:   7    -0.379544086987E+03   -0.26056E-05   -0.16562E-05  3924   0.527E-03    0.406E-02
RMM:   8    -0.379544086835E+03    0.15246E-06   -0.14637E-05  3923   0.492E-03    0.304E-02
RMM:   9    -0.379544082761E+03    0.40741E-05   -0.51502E-06  3273   0.307E-03    0.139E-02
RMM:  10    -0.379544081851E+03    0.90960E-06   -0.96794E-07  2053   0.141E-03
  14 F= -.41405003E+03 E0= -.41370706E+03  d E =-.388959E-03
       N       E                     dE             d eps       ncg     rms          rms(c)
DAV:   1    -0.379545174657E+03   -0.10919E-02   -0.13887E-01  3936   0.541E-01    0.688E-02
RMM:   2    -0.379545810048E+03   -0.63539E-03   -0.28911E-03  4015   0.809E-02    0.227E-01
RMM:   3    -0.379545707967E+03    0.10208E-03   -0.31088E-04  3973   0.233E-02    0.208E-01
RMM:   4    -0.379545449355E+03    0.25861E-03   -0.11633E-04  3952   0.155E-02    0.914E-02
RMM:   5    -0.379545392055E+03    0.57300E-04   -0.27821E-05  3953   0.757E-03    0.326E-02
RMM:   6    -0.379545407413E+03   -0.15358E-04   -0.20631E-05  3926   0.616E-03    0.384E-02
RMM:   7    -0.379545408401E+03   -0.98775E-06   -0.13470E-05  3919   0.475E-03    0.298E-02
RMM:   8    -0.379545409110E+03   -0.70904E-06   -0.10322E-05  3901   0.418E-03    0.230E-02
RMM:   9    -0.379545406060E+03    0.30495E-05   -0.29736E-06  2378   0.240E-03    0.849E-03
RMM:  10    -0.379545405879E+03    0.18130E-06   -0.63765E-07  2028   0.117E-03
  15 F= -.41405035E+03 E0= -.41370732E+03  d E =-.320145E-03
