 vasp.5.4.4.18Apr17-6-g9f103f2a35 (build Nov 06 2023 00:46:14) complex          
  
 executed on             LinuxIFC date 2025.07.24  16:08:02
 running on   64 total cores
 distrk:  each k-point on   64 cores,    1 groups
 distr:  one band on NCORES_PER_BAND=   8 cores,    8 groups


--------------------------------------------------------------------------------------------------------


 INCAR:
 POTCAR:    PAW_PBE Pt 04Feb2005                  
 POTCAR:    PAW_PBE O 08Apr2002                   
 POTCAR:    PAW_PBE Pt 04Feb2005                  
   VRHFIN =Pt: s1d9                                                             
   LEXCH  = PE                                                                  
   EATOM  =   729.1176 eV,   53.5886 Ry                                         
                                                                                
   TITEL  = PAW_PBE Pt 04Feb2005                                                
   LULTRA =        F    use ultrasoft PP ?                                      
   IUNSCR =        1    unscreen: 0-lin 1-nonlin 2-no                           
   RPACOR =    2.330    partial core radius                                     
   POMASS =  195.080; ZVAL   =   10.000    mass and valenz                      
   RCORE  =    2.600    outmost cutoff radius                                   
   RWIGS  =    2.750; RWIGS  =    1.455    wigner-seitz radius (au A)           
   ENMAX  =  230.283; ENMIN  =  172.712 eV                                      
   ICORE  =        3    local potential                                         
   LCOR   =        T    correct aug charges                                     
   LPAW   =        T    paw PP                                                  
   EAUG   =  358.966                                                            
   DEXC   =    0.000                                                            
   RMAX   =    2.658    core radius for proj-oper                               
   RAUG   =    1.300    factor for augmentation sphere                          
   RDEP   =    2.761    radius for radial grids                                 
   RDEPT  =    2.203    core radius for aug-charge                              
                                                                                
   Atomic configuration                                                         
   16 entries                                                                   
     n  l   j            E        occ.                                          
     1  0  0.50    -78401.1885   2.0000                                         
     2  0  0.50    -13770.7750   2.0000                                         
     2  1  1.50    -11931.0468   6.0000                                         
     3  0  0.50     -3234.7234   2.0000                                         
     3  1  1.50     -2699.2216   6.0000                                         
     3  2  2.50     -2119.5714  10.0000                                         
     4  0  0.50      -695.1528   2.0000                                         
     4  1  1.50      -519.6034   6.0000                                         
     4  2  2.50      -306.6786  10.0000                                         
     4  3  3.50       -70.1041  14.0000                                         
     5  0  0.50      -101.7747   2.0000                                         
     5  1  1.50       -55.9873   6.0000                                         
     5  2  2.50        -6.1423   9.0000                                         
     6  0  0.50        -5.6573   1.0000                                         
     6  1  1.50        -6.8029   0.0000                                         
     5  3  2.50        -1.3606   0.0000                                         
   Description                                                                  
     l       E           TYP  RCUT    TYP  RCUT                                 
     2     -6.1423404     23  2.500                                             
     2     -7.5029230     23  2.500                                             
     0     -5.6573207     23  2.500                                             
     0      0.7416693     23  2.500                                             
     1     -2.7211652     23  2.600                                             
     1     20.4087390     23  2.600                                             
     3     -1.3605826     23  2.500                                             
  local pseudopotential read in
  partial core-charges read in
  partial kinetic energy density read in
  atomic valenz-charges read in
  non local Contribution for L=           2  read in
    real space projection operators read in
  non local Contribution for L=           2  read in
    real space projection operators read in
  non local Contribution for L=           0  read in
    real space projection operators read in
  non local Contribution for L=           0  read in
    real space projection operators read in
  non local Contribution for L=           1  read in
    real space projection operators read in
  non local Contribution for L=           1  read in
    real space projection operators read in
    PAW grid and wavefunctions read in
 
   number of l-projection  operators is LMAX  =           6
   number of lm-projection operators is LMMAX =          18
 
 POTCAR:    PAW_PBE O 08Apr2002                   
   VRHFIN =O: s2p4                                                              
   LEXCH  = PE                                                                  
   EATOM  =   432.3788 eV,   31.7789 Ry                                         
                                                                                
   TITEL  = PAW_PBE O 08Apr2002                                                 
   LULTRA =        F    use ultrasoft PP ?                                      
   IUNSCR =        1    unscreen: 0-lin 1-nonlin 2-no                           
   RPACOR =    1.200    partial core radius                                     
   POMASS =   16.000; ZVAL   =    6.000    mass and valenz                      
   RCORE  =    1.520    outmost cutoff radius                                   
   RWIGS  =    1.550; RWIGS  =    0.820    wigner-seitz radius (au A)           
   ENMAX  =  400.000; ENMIN  =  300.000 eV                                      
   ICORE  =        2    local potential                                         
   LCOR   =        T    correct aug charges                                     
   LPAW   =        T    paw PP                                                  
   EAUG   =  605.392                                                            
   DEXC   =    0.000                                                            
   RMAX   =    1.553    core radius for proj-oper                               
   RAUG   =    1.300    factor for augmentation sphere                          
   RDEP   =    1.550    radius for radial grids                                 
   RDEPT  =    1.329    core radius for aug-charge                              
                                                                                
   Atomic configuration                                                         
    4 entries                                                                   
     n  l   j            E        occ.                                          
     1  0  0.50      -514.6923   2.0000                                         
     2  0  0.50       -23.9615   2.0000                                         
     2  1  0.50        -9.0305   4.0000                                         
     3  2  1.50        -9.5241   0.0000                                         
   Description                                                                  
     l       E           TYP  RCUT    TYP  RCUT                                 
     0    -23.9615318     23  1.200                                             
     0     -9.5240782     23  1.200                                             
     1     -9.0304911     23  1.520                                             
     1      8.1634956     23  1.520                                             
     2     -9.5240782      7  1.500                                             
  local pseudopotential read in
  partial core-charges read in
  partial kinetic energy density read in
  kinetic energy density of atom read in
  atomic valenz-charges read in
  non local Contribution for L=           0  read in
    real space projection operators read in
  non local Contribution for L=           0  read in
    real space projection operators read in
  non local Contribution for L=           1  read in
    real space projection operators read in
  non local Contribution for L=           1  read in
    real space projection operators read in
    PAW grid and wavefunctions read in
 
   number of l-projection  operators is LMAX  =           4
   number of lm-projection operators is LMMAX =           8
 
 Optimization of the real space projectors (new method)

 maximal supplied QI-value         = 14.36
 optimisation between [QCUT,QGAM] = [ 10.77, 21.69] = [ 32.49,131.70] Ry 
 Optimized for a Real-space Cutoff    1.46 Angstroem

   l    n(q)    QCUT    max X(q) W(low)/X(q) W(high)/X(q)  e(spline) 
   2      9    10.771    66.195    0.13E-03    0.31E-03    0.27E-06
   2      9    10.771    64.643    0.13E-03    0.32E-03    0.28E-06
   0     10    10.771    95.520    0.41E-04    0.13E-03    0.15E-06
   0     10    10.771    63.403    0.40E-04    0.12E-03    0.14E-06
   1      9    10.771    19.961    0.42E-03    0.19E-03    0.28E-06
   1      9    10.771    13.289    0.35E-03    0.16E-03    0.23E-06
 Optimization of the real space projectors (new method)

 maximal supplied QI-value         = 24.76
 optimisation between [QCUT,QGAM] = [ 10.64, 21.54] = [ 31.73,129.89] Ry 
 Optimized for a Real-space Cutoff    1.23 Angstroem

   l    n(q)    QCUT    max X(q) W(low)/X(q) W(high)/X(q)  e(spline) 
   0      8    10.645    20.381    0.38E-03    0.60E-03    0.15E-06
   0      8    10.645    15.268    0.40E-03    0.65E-03    0.17E-06
   1      7    10.645     5.964    0.30E-03    0.63E-03    0.18E-06
   1      7    10.645     5.382    0.24E-03    0.53E-03    0.16E-06
  PAW_PBE Pt 04Feb2005                  :
 energy of atom  1       EATOM= -729.1176
 kinetic energy error for atom=    0.0051 (will be added to EATOM!!)
  PAW_PBE O 08Apr2002                   :
 energy of atom  2       EATOM= -432.3788
 kinetic energy error for atom=    0.0389 (will be added to EATOM!!)
 
 
 POSCAR: Pt  O                                   
  positions in cartesian coordinates
  No initial velocities read in
 exchange correlation table for  LEXCH =        8
   RHO(1)=    0.500       N(1)  =     2000
   RHO(2)=  100.500       N(2)  =     4000

 VTST: version 3.2, (02/03/18)

 CHAIN: initializing optimizer
 
 OPT: Using VASP QUASI-newton optimizer
 CHAIN: Read ICHAIN            0
 
 POSCAR: Pt  O                                   
  positions in cartesian coordinates
  No initial velocities read in
 


--------------------------------------------------------------------------------------------------------


 ion  position               nearest neighbor table
   1  0.000  0.000  0.000-   9 2.81  25 2.81   5 2.81  29 2.81  34 2.82   4 2.85  28 2.85  36 2.85
                            60 2.85
   2  0.333  0.000  0.092-  30 2.75   3 2.76  26 2.81  10 2.81  28 2.81   4 2.81  33 2.82   6 2.85
                             5 2.85  29 2.85  37 2.85  61 2.85
   3  0.168  1.000  0.180-  29 2.76   2 2.76   5 2.76   8 2.78  27 2.80  11 2.80  32 2.80   7 2.82
                            30 2.84  62 2.85  38 2.86   6 2.88
   4  0.250  0.125  0.000-  12 2.81  28 2.81   2 2.81  10 2.81   5 2.82   9 2.85   1 2.85  33 2.85
                            41 2.85
   5  0.083  0.125  0.092-  11 2.74   3 2.76  38 2.76  29 2.81  13 2.81   1 2.81   9 2.81   4 2.82
                             2 2.85  34 2.85  10 2.85  42 2.85
   6  0.419  0.128  0.184-  39 2.77  14 2.77   8 2.78  47 2.78  43 2.79  10 2.81  37 2.82  30 2.84
                             2 2.85  11 2.85  35 2.85   3 2.88
   7  0.001  0.999  0.272-  31 2.78  62 2.79  15 2.80  38 2.81   8 2.82   3 2.82  40 2.82  32 2.84
                            64 2.84
   8  0.247  0.124  0.271-   6 2.78   3 2.78  11 2.79  32 2.79   7 2.82  16 2.82  15 2.82  47 2.88
                            39 2.88
   9  0.000  0.250  0.000-   1 2.81  17 2.81  13 2.81   5 2.81  42 2.82  12 2.85  36 2.85   4 2.85
                            44 2.85
  10  0.333  0.250  0.092-  14 2.76  11 2.76   2 2.81  18 2.81   6 2.81   4 2.81  12 2.81  41 2.82
                            13 2.85  37 2.85   5 2.85  45 2.85
  11  0.166  0.249  0.180-   5 2.74  16 2.74  13 2.75  10 2.76   8 2.79   3 2.80  15 2.83  19 2.83
                            38 2.83  46 2.84  14 2.84   6 2.85
  12  0.250  0.375  0.000-   4 2.81  20 2.81  18 2.81  10 2.81  13 2.82   9 2.85  17 2.85  41 2.85
                            49 2.85
  13  0.083  0.375  0.092-  46 2.75  19 2.75  11 2.75  21 2.81   5 2.81  17 2.81   9 2.81  12 2.82
                            18 2.85  42 2.85  10 2.85  50 2.85
  14  0.415  0.375  0.181-  10 2.76  18 2.76   6 2.77  22 2.77  45 2.79  16 2.81  11 2.84  19 2.84
                            43 2.84  51 2.84  47 2.87  55 2.87
  15  0.000  0.248  0.272-  48 2.76  16 2.78  38 2.80   7 2.80  40 2.82   8 2.82  11 2.83  46 2.83
                            23 2.85
  16  0.241  0.375  0.270-  11 2.74  19 2.74  15 2.78  23 2.78  14 2.81  24 2.82   8 2.82  55 2.94
                            47 2.94
  17  0.000  0.500  0.000-   9 2.81  25 2.81  21 2.81  13 2.81  50 2.82  20 2.85  44 2.85  12 2.85
                            52 2.85
  18  0.333  0.500  0.092-  14 2.76  19 2.76  10 2.81  26 2.81  22 2.81  12 2.81  20 2.81  49 2.82
                            21 2.85  45 2.85  13 2.85  53 2.85
  19  0.166  0.501  0.180-  21 2.74  16 2.74  13 2.75  18 2.76  24 2.79  27 2.80  23 2.83  11 2.83
                            54 2.83  46 2.84  14 2.84  22 2.85
  20  0.250  0.625  0.000-  12 2.81  28 2.81  26 2.81  18 2.81  21 2.82  17 2.85  25 2.85  49 2.85
                            57 2.85
  21  0.083  0.625  0.092-  19 2.74  27 2.76  54 2.76  29 2.81  13 2.81  25 2.81  17 2.81  20 2.82
                            26 2.85  50 2.85  18 2.85  58 2.85
  22  0.419  0.622  0.184-  63 2.77  14 2.77  24 2.78  55 2.78  51 2.79  18 2.81  53 2.82  30 2.84
                            26 2.85  19 2.85  59 2.85  27 2.88
  23  0.000  0.502  0.272-  48 2.76  16 2.78  54 2.80  31 2.80  56 2.82  24 2.82  19 2.83  46 2.83
                            15 2.85
  24  0.247  0.626  0.271-  22 2.78  27 2.78  19 2.79  32 2.79  31 2.82  16 2.82  23 2.82  55 2.88
                            63 2.88
  25  0.000  0.750  0.000-   1 2.81  17 2.81  21 2.81  29 2.81  58 2.82  20 2.85  52 2.85  28 2.85
                            60 2.85
  26  0.333  0.750  0.092-  30 2.75  27 2.76   2 2.81  18 2.81  28 2.81  20 2.81  57 2.82  22 2.85
                            21 2.85  53 2.85  29 2.85  61 2.85
  27  0.168  0.750  0.180-  29 2.76  26 2.76  21 2.76  24 2.78   3 2.80  19 2.80  32 2.80  31 2.82
                            30 2.84  62 2.85  54 2.86  22 2.88
  28  0.250  0.875  0.000-   4 2.81  20 2.81   2 2.81  26 2.81  29 2.82   1 2.85  25 2.85  33 2.85
                            57 2.85
  29  0.083  0.875  0.092-   3 2.76  27 2.76  62 2.76   5 2.81  21 2.81   1 2.81  25 2.81  28 2.82
                            26 2.85  34 2.85  58 2.85   2 2.85
  30  0.418  0.875  0.180-  26 2.75   2 2.75  61 2.76  39 2.79  63 2.79  32 2.83   3 2.84  27 2.84
                             6 2.84  59 2.84  35 2.84  22 2.84
  31  0.001  0.751  0.272-   7 2.78  62 2.79  23 2.80  54 2.81  24 2.82  27 2.82  56 2.82  32 2.84
                            64 2.84
  32  0.250  0.875  0.272-  24 2.79   8 2.79  27 2.80   3 2.80  30 2.83  39 2.83  63 2.83  31 2.84
                             7 2.84
  33  0.500  0.000  0.000-  41 2.81  57 2.81  37 2.81  61 2.81   2 2.82  28 2.85  36 2.85  60 2.85
                             4 2.85
  34  0.833  0.000  0.092-  38 2.76  62 2.76  35 2.77  58 2.81  42 2.81  60 2.81  36 2.81   1 2.82
                            37 2.85   5 2.85  61 2.85  29 2.85
  35  0.667  1.000  0.181-  61 2.76  37 2.76  34 2.77  40 2.79  64 2.79  59 2.80  43 2.81  39 2.81
                            30 2.84  38 2.85   6 2.85  62 2.85
  36  0.750  0.125  0.000-  44 2.81  60 2.81  34 2.81  42 2.81  37 2.82  41 2.85  33 2.85   1 2.85
                             9 2.85
  37  0.583  0.125  0.092-  35 2.76  43 2.79  45 2.81  61 2.81  41 2.81  33 2.81   6 2.82  36 2.82
                            42 2.85  10 2.85   2 2.85  34 2.85
  38  0.918  0.125  0.181-  34 2.76  42 2.76   5 2.76  40 2.79  15 2.80  62 2.80  46 2.81   7 2.81
                            11 2.83  35 2.85   3 2.86  43 2.87
  39  0.500  0.997  0.272-  63 2.75   6 2.77  30 2.79  35 2.81  47 2.83  32 2.83  64 2.85  40 2.88
                             8 2.88
  40  0.754  0.123  0.271-  43 2.78  35 2.79  64 2.79  38 2.79  15 2.82   7 2.82  48 2.82  47 2.88
                            39 2.88
  41  0.500  0.250  0.000-  33 2.81  49 2.81  45 2.81  37 2.81  10 2.82  12 2.85  44 2.85   4 2.85
                            36 2.85
  42  0.833  0.250  0.092-  46 2.75  38 2.76  34 2.81  50 2.81  36 2.81  44 2.81  43 2.82   9 2.82
                            37 2.85  45 2.85   5 2.85  13 2.85
  43  0.665  0.250  0.182-  48 2.77  45 2.78  40 2.78  37 2.79   6 2.79  51 2.80  35 2.81  42 2.82
                            47 2.83  14 2.84  38 2.87  46 2.88
  44  0.750  0.375  0.000-  36 2.81  52 2.81  50 2.81  42 2.81  45 2.82   9 2.85  49 2.85  41 2.85
                            17 2.85
  45  0.583  0.375  0.092-  51 2.78  43 2.78  14 2.79  37 2.81  53 2.81  41 2.81  49 2.81  44 2.82
                            42 2.85  50 2.85  10 2.85  18 2.85
  46  0.918  0.375  0.180-  48 2.74  50 2.75  42 2.75  13 2.75  54 2.81  38 2.81  23 2.83  15 2.83
                            19 2.84  11 2.84  51 2.88  43 2.88
  47  0.501  0.249  0.275-  65 2.00   6 2.78  55 2.82  39 2.83  43 2.83  14 2.87  40 2.88   8 2.88
                            16 2.94  48 2.94
  48  0.761  0.375  0.270-  46 2.74  15 2.76  23 2.76  43 2.77  51 2.77  56 2.82  40 2.82  47 2.94
                            55 2.94
  49  0.500  0.500  0.000-  41 2.81  57 2.81  53 2.81  45 2.81  18 2.82  20 2.85  52 2.85  12 2.85
                            44 2.85
  50  0.833  0.500  0.092-  46 2.75  54 2.76  42 2.81  58 2.81  44 2.81  52 2.81  51 2.82  17 2.82
                            45 2.85  53 2.85  13 2.85  21 2.85
  51  0.665  0.500  0.182-  48 2.77  45 2.78  56 2.78  53 2.79  22 2.79  43 2.80  59 2.81  50 2.82
                            55 2.84  14 2.84  54 2.87  46 2.88
  52  0.750  0.625  0.000-  44 2.81  60 2.81  58 2.81  50 2.81  53 2.82  17 2.85  57 2.85  49 2.85
                            25 2.85
  53  0.583  0.625  0.092-  59 2.76  51 2.79  45 2.81  61 2.81  49 2.81  57 2.81  22 2.82  52 2.82
                            50 2.85  58 2.85  18 2.85  26 2.85
  54  0.918  0.625  0.181-  58 2.76  50 2.76  21 2.76  56 2.79  23 2.80  62 2.80  46 2.81  31 2.81
                            19 2.83  59 2.85  27 2.86  51 2.87
  55  0.501  0.501  0.275-  66 2.00  22 2.78  47 2.82  63 2.83  51 2.84  14 2.87  24 2.88  56 2.88
                            16 2.94  48 2.94
  56  0.754  0.627  0.271-  51 2.78  59 2.79  64 2.79  54 2.79  23 2.82  31 2.82  48 2.82  55 2.88
                            63 2.88
  57  0.500  0.750  0.000-  33 2.81  49 2.81  53 2.81  61 2.81  26 2.82  52 2.85  20 2.85  60 2.85
                            28 2.85
  58  0.833  0.750  0.092-  54 2.76  62 2.76  59 2.77  50 2.81  34 2.81  60 2.81  52 2.81  25 2.82
                            21 2.85  53 2.85  61 2.85  29 2.85
  59  0.667  0.750  0.181-  61 2.76  53 2.76  58 2.77  56 2.79  64 2.79  35 2.80  51 2.81  63 2.81
                            30 2.84  54 2.85  22 2.85  62 2.85
  60  0.750  0.875  0.000-  36 2.81  52 2.81  34 2.81  58 2.81  61 2.82  33 2.85  57 2.85   1 2.85
                            25 2.85
  61  0.583  0.875  0.092-  30 2.76  35 2.76  59 2.76  53 2.81  37 2.81  57 2.81  33 2.81  60 2.82
                             2 2.85  58 2.85  26 2.85  34 2.85
  62  0.918  0.875  0.181-  34 2.76  58 2.76  29 2.76   7 2.79  31 2.79  38 2.80  54 2.80  64 2.81
                             3 2.85  27 2.85  35 2.85  59 2.85
  63  0.500  0.753  0.272-  39 2.75  22 2.77  30 2.79  59 2.81  55 2.83  32 2.83  64 2.85  56 2.88
                            24 2.88
  64  0.752  0.875  0.272-  40 2.79  56 2.79  35 2.79  59 2.79  62 2.81  31 2.84   7 2.84  39 2.85
                            63 2.85
  65  0.500  0.314  0.350-  66 1.37  47 2.00
  66  0.500  0.436  0.350-  65 1.37  55 2.00
 

IMPORTANT INFORMATION: All symmetrisations will be switched off!
NOSYMM: (Re-)initialisation of all symmetry stuff for point group C_1.

 
 
 KPOINTS: K-Spacing Value to Generate K-Mesh: 0.03

Automatic generation of k-mesh.
Space group operators:
 irot       det(A)        alpha          n_x          n_y          n_z        tau_x        tau_y        tau_z
    1     1.000000     0.000000     1.000000     0.000000     0.000000     0.000000     0.000000     0.000000
 
 Subroutine IBZKPT returns following result:
 ===========================================
 
 Found      5 irreducible k-points:
 
 Following reciprocal coordinates:
            Coordinates               Weight
  0.000000  0.000000  0.000000      1.000000
  0.333333  0.000000  0.000000      2.000000
  0.000000  0.333333  0.000000      2.000000
  0.333333  0.333333  0.000000      2.000000
 -0.333333  0.333333  0.000000      2.000000
 
 Following cartesian coordinates:
            Coordinates               Weight
  0.000000  0.000000  0.000000      1.000000
  0.033629  0.000000  0.000000      2.000000
  0.000000  0.029706  0.000000      2.000000
  0.033629  0.029706  0.000000      2.000000
 -0.033629  0.029706  0.000000      2.000000
 


--------------------------------------------------------------------------------------------------------




 Dimension of arrays:
   k-points           NKPTS =      5   k-points in BZ     NKDIM =      5   number of bands    NBANDS=    392
   number of dos      NEDOS =    301   number of ions     NIONS =     66
   non local maximal  LDIM  =      6   non local SUM 2l+1 LMDIM =     18
   total plane-waves  NPLWV = 453600
   max r-space proj   IRMAX =   2198   max aug-charges    IRDMAX=  10079
   dimension x,y,z NGX =    54 NGY =   60 NGZ =  140
   dimension x,y,z NGXF=   108 NGYF=  120 NGZF=  280
   support grid    NGXF=   108 NGYF=  120 NGZF=  280
   ions per type =              64   2
   NGX,Y,Z   is equivalent  to a cutoff of   9.06,  8.89,  9.31 a.u.
   NGXF,Y,Z  is equivalent  to a cutoff of  18.11, 17.78, 18.62 a.u.

 SYSTEM =  Pt111 O2 adsorption system              
 POSCAR =  Pt  O                                   

 Startparameter for this run:
   NWRITE =      2    write-flag & timer
   PREC   = normal    normal or accurate (medium, high low for compatibility)
   ISTART =      0    job   : 0-new  1-cont  2-samecut
   ICHARG =      1    charge: 1-file 2-atom 10-const
   ISPIN  =      1    spin polarized calculation?
   LNONCOLLINEAR =      F non collinear calculations
   LSORBIT =      F    spin-orbit coupling
   INIWAV =      1    electr: 0-lowe 1-rand  2-diag
   LASPH  =      F    aspherical Exc in radial PAW
   METAGGA=      F    non-selfconsistent MetaGGA calc.

 Electronic Relaxation 1
   ENCUT  =  450.0 eV  33.07 Ry    5.75 a.u.  17.14 19.41 43.24*2*pi/ulx,y,z
   ENINI  =  450.0     initial cutoff
   ENAUG  =  605.4 eV  augmentation charge cutoff
   NELM   =     60;   NELMIN=  2; NELMDL= -5     # of ELM steps 
   EDIFF  = 0.1E-05   stopping-criterion for ELM
   LREAL  =      T    real-space projection
   NLSPLINE    = F    spline interpolate recip. space projectors
   LCOMPAT=      F    compatible to vasp.4.4
   GGA_COMPAT  = T    GGA compatible to vasp.4.4-vasp.4.6
   LMAXPAW     = -100 max onsite density
   LMAXMIX     =    2 max onsite mixed and CHGCAR
   VOSKOWN=      0    Vosko Wilk Nusair interpolation
   ROPT   =   -0.00050  -0.00050
 Ionic relaxation
   EDIFFG = -.2E-01   stopping-criterion for IOM
   NSW    =    200    number of steps for IOM
   NBLOCK =      1;   KBLOCK =    200    inner block; outer block 
   IBRION =      1    ionic relax: 0-MD 1-quasi-New 2-CG
   NFREE  =      0    steps in history (QN), initial steepest desc. (CG)
   ISIF   =      2    stress and relaxation
   IWAVPR =     11    prediction:  0-non 1-charg 2-wave 3-comb
   ISYM   =      0    0-nonsym 1-usesym 2-fastsym
   LCORR  =      T    Harris-Foulkes like correction to forces

   POTIM  = 0.2000    time-step for ionic-motion
   TEIN   =    0.0    initial temperature
   TEBEG  =    0.0;   TEEND  =   0.0 temperature during run
   SMASS  =  -3.00    Nose mass-parameter (am)
   estimated Nose-frequenzy (Omega)   =  0.10E-29 period in steps =****** mass=  -0.225E-26a.u.
   SCALEE = 1.0000    scale energy and forces
   NPACO  =    256;   APACO  = 16.0  distance and # of slots for P.C.
   PSTRESS=    0.0 pullay stress

  Mass of Ions in am
   POMASS = 195.08 16.00
  Ionic Valenz
   ZVAL   =  10.00  6.00
  Atomic Wigner-Seitz radii
   RWIGS  =  -1.00 -1.00
  virtual crystal weights 
   VCA    =   1.00  1.00
   NELECT =     652.0000    total number of electrons
   NUPDOWN=      -1.0000    fix difference up-down

 DOS related values:
   EMIN   =  10.00;   EMAX   =-10.00  energy-range for DOS
   EFERMI =   0.00
   ISMEAR =     0;   SIGMA  =   0.10  broadening in eV -4-tet -1-fermi 0-gaus

 Electronic relaxation 2 (details)
   IALGO  =     68    algorithm
   LDIAG  =      T    sub-space diagonalisation (order eigenvalues)
   LSUBROT=      F    optimize rotation matrix (better conditioning)
   TURBO    =      0    0=normal 1=particle mesh
   IRESTART =      0    0=no restart 2=restart with 2 vectors
   NREBOOT  =      0    no. of reboots
   NMIN     =      0    reboot dimension
   EREF     =   0.00    reference energy to select bands
   IMIX   =      4    mixing-type and parameters
     AMIX     =   0.40;   BMIX     =  1.00
     AMIX_MAG =   1.60;   BMIX_MAG =  1.00
     AMIN     =   0.10
     WC   =   100.;   INIMIX=   1;  MIXPRE=   1;  MAXMIX= -45

 Intra band minimization:
   WEIMIN = 0.0010     energy-eigenvalue tresh-hold
   EBREAK =  0.64E-09  absolut break condition
   DEPER  =   0.30     relativ break condition  

   TIME   =   0.40     timestep for ELM

  volume/ion in A,a.u.               =      42.13       284.31
  Fermi-wavevector in a.u.,A,eV,Ry     =   1.009506  1.907691 13.865743  1.019103
  Thomas-Fermi vector in A             =   2.142439
 
 Write flags
   LWAVE        =      F    write WAVECAR
   LDOWNSAMPLE  =      F    k-point downsampling of WAVECAR
   LCHARG       =      F    write CHGCAR
   LVTOT        =      F    write LOCPOT, total local potential
   LVHAR        =      F    write LOCPOT, Hartree potential only
   LELF         =      F    write electronic localiz. function (ELF)
   LORBIT       =      0    0 simple, 1 ext, 2 COOP (PROOUT), +10 PAW based schemes


 Dipole corrections
   LMONO  =      F    monopole corrections only (constant potential shift)
   LDIPOL =      T    correct potential (dipole corrections)
   IDIPOL =      3    1-x, 2-y, 3-z, 4-all directions 
   EPSILON=  1.0000000 bulk dielectric constant

 Exchange correlation treatment:
   GGA     =    PE    GGA type
   LEXCH   =     8    internal setting for exchange type
   VOSKOWN=      0    Vosko Wilk Nusair interpolation
   LHFCALC =     F    Hartree Fock is set to
   LHFONE  =     F    Hartree Fock one center treatment
   AEXX    =    0.0000 exact exchange contribution

 Linear response parameters
   LEPSILON=     F    determine dielectric tensor
   LRPA    =     F    only Hartree local field effects (RPA)
   LNABLA  =     F    use nabla operator in PAW spheres
   LVEL    =     F    velocity operator in full k-point grid
   LINTERFAST=   F  fast interpolation
   KINTER  =     0    interpolate to denser k-point grid
   CSHIFT  =0.1000    complex shift for real part using Kramers Kronig
   OMEGAMAX=  -1.0    maximum frequency
   DEG_THRESHOLD= 0.2000000E-02 threshold for treating states as degnerate
   RTIME   =   -0.100 relaxation time in fs
  (WPLASMAI=    0.000 imaginary part of plasma frequency in eV, 0.658/RTIME)
   DFIELD  = 0.0000000 0.0000000 0.0000000 field for delta impulse in time
 
 Orbital magnetization related:
   ORBITALMAG=     F  switch on orbital magnetization
   LCHIMAG   =     F  perturbation theory with respect to B field
   DQ        =  0.001000  dq finite difference perturbation B field
   LLRAUG    =     F  two centre corrections for induced B field



--------------------------------------------------------------------------------------------------------


 quasi-Newton-method for relaxation of ions
   using selective dynamics as specified on POSCAR
   WARNING: If single coordinates had been selected the selection of coordinates
            is made according to the corresponding   d i r e c t   coordinates!
            Don't support selection of single cartesian coordinates -- sorry ...
  !
 charge density and potential will be updated during run
 non-spin polarized calculation
 RMM-DIIS sequential band-by-band and
  variant of blocked Davidson during initial phase
 perform sub-space diagonalisation
    before iterative eigenvector-optimisation
 modified Broyden-mixing scheme, WC =      100.0
 initial mixing is a Kerker type mixing with AMIX =  0.4000 and BMIX =      1.0000
 Hartree-type preconditioning will be used
 using additional bands           66
 real space projection scheme for non local part
 use partial core corrections
 calculate Harris-corrections to forces 
   (improved forces if not selfconsistent)
 use gradient corrections 
 use of overlap-Matrix (Vanderbilt PP)
 Gauss-broadening in eV      SIGMA  =   0.10


--------------------------------------------------------------------------------------------------------


  energy-cutoff  :      450.00
  volume of cell :     2780.64
      direct lattice vectors                 reciprocal lattice vectors
     9.912147860  0.000000000  0.000000000     0.100886308  0.000000000  0.000000000
     0.000000000 11.221139680  0.000000000     0.000000000  0.089117508  0.000000000
     0.000000000  0.000000000 25.000000000     0.000000000  0.000000000  0.040000000

  length of vectors
     9.912147860 11.221139680 25.000000000     0.100886308  0.089117508  0.040000000


 
 k-points in units of 2pi/SCALE and weight: K-Spacing Value to Generate K-Mesh: 0.03
   0.00000000  0.00000000  0.00000000       0.111
   0.03362877  0.00000000  0.00000000       0.222
   0.00000000  0.02970584  0.00000000       0.222
   0.03362877  0.02970584  0.00000000       0.222
  -0.03362877  0.02970584  0.00000000       0.222
 
 k-points in reciprocal lattice and weights: K-Spacing Value to Generate K-Mesh: 0.03
   0.00000000  0.00000000  0.00000000       0.111
   0.33333333  0.00000000  0.00000000       0.222
   0.00000000  0.33333333  0.00000000       0.222
   0.33333333  0.33333333  0.00000000       0.222
  -0.33333333  0.33333333  0.00000000       0.222
 
 position of ions in fractional coordinates (direct lattice) 
   0.00000000  0.00000000  0.00000000
   0.33333333  0.00000000  0.09162022
   0.16841711  0.99959643  0.18048445
   0.25000000  0.12500000  0.00000000
   0.08333333  0.12500000  0.09162022
   0.41924967  0.12837264  0.18365349
   0.00103570  0.99896795  0.27176436
   0.24736894  0.12399549  0.27137831
   0.00000000  0.25000000  0.00000000
   0.33333333  0.25000000  0.09162022
   0.16637842  0.24897400  0.18018976
   0.25000000  0.37500000  0.00000000
   0.08333333  0.37500000  0.09162022
   0.41504359  0.37498553  0.18114481
   0.00010215  0.24814926  0.27206699
   0.24063222  0.37499041  0.26951395
   0.00000000  0.50000000  0.00000000
   0.33333333  0.50000000  0.09162022
   0.16637779  0.50101953  0.18018993
   0.25000000  0.62500000  0.00000000
   0.08333333  0.62500000  0.09162022
   0.41924590  0.62160108  0.18365344
   0.00009915  0.50184421  0.27206669
   0.24736079  0.62598070  0.27138187
   0.00000000  0.75000000  0.00000000
   0.33333333  0.75000000  0.09162022
   0.16841485  0.75038395  0.18048360
   0.25000000  0.87500000  0.00000000
   0.08333333  0.87500000  0.09162022
   0.41755340  0.87499432  0.18038227
   0.00103762  0.75101645  0.27176539
   0.25026440  0.87498461  0.27190313
   0.50000000  0.00000000  0.00000000
   0.83333333  0.00000000  0.09162022
   0.66729736  0.99985780  0.18085824
   0.75000000  0.12500000  0.00000000
   0.58333333  0.12500000  0.09162022
   0.91755993  0.12488867  0.18055784
   0.50037679  0.99744650  0.27180768
   0.75366670  0.12336507  0.27121658
   0.50000000  0.25000000  0.00000000
   0.83333333  0.25000000  0.09162022
   0.66471508  0.25021359  0.18225189
   0.75000000  0.37500000  0.00000000
   0.58333333  0.37500000  0.09162022
   0.91798016  0.37500193  0.17993088
   0.50074411  0.24940767  0.27515786
   0.76112703  0.37499214  0.27002620
   0.50000000  0.50000000  0.00000000
   0.83333333  0.50000000  0.09162022
   0.66471541  0.49977458  0.18224401
   0.75000000  0.62500000  0.00000000
   0.58333333  0.62500000  0.09162022
   0.91755192  0.62510697  0.18055141
   0.50071878  0.50053535  0.27517889
   0.75366890  0.62659842  0.27120520
   0.50000000  0.75000000  0.00000000
   0.83333333  0.75000000  0.09162022
   0.66729251  0.75012704  0.18085489
   0.75000000  0.87500000  0.00000000
   0.58333333  0.87500000  0.09162022
   0.91791889  0.87500620  0.18062272
   0.50037413  0.75251702  0.27180548
   0.75170087  0.87498587  0.27153357
   0.50043407  0.31383243  0.34994706
   0.50042052  0.43604722  0.34995305
 
 position of ions in cartesian coordinates  (Angst):
   0.00000000  0.00000000  0.00000000
   3.30404930  0.00000000  2.29050552
   1.66937530 11.21661121  4.51211113
   2.47803697  1.40264246  0.00000000
   0.82601234  1.40264246  2.29050552
   4.15566468  1.44048734  4.59133718
   0.01026603 11.20955885  6.79410908
   2.45195749  1.39137075  6.78445783
   0.00000000  2.80528492  0.00000000
   3.30404930  2.80528492  2.29050552
   1.64916748  2.79377198  4.50474389
   2.47803697  4.20792738  0.00000000
   0.82601234  4.20792738  2.29050552
   4.11397343  4.20776505  4.52862026
   0.00101250  2.78451750  6.80167479
   2.38518216  4.20781976  6.73784877
   0.00000000  5.61056984  0.00000000
   3.30404930  5.61056984  2.29050552
   1.64916125  5.62201010  4.50474836
   2.47803697  7.01321230  0.00000000
   0.82601234  7.01321230  2.29050552
   4.15562731  6.97507253  4.59133599
   0.00098276  5.63126400  6.80166734
   2.45187669  7.02421687  6.78454683
   0.00000000  8.41585476  0.00000000
   3.30404930  8.41585476  2.29050552
   1.66935294  8.42016313  4.51209012
   2.47803697  9.81849722  0.00000000
   0.82601234  9.81849722  2.29050552
   4.13885099  9.81843346  4.50955684
   0.01028505  8.42726053  6.79413466
   2.48065772  9.81832450  6.79757814
   4.95607393  0.00000000  0.00000000
   8.26012323  0.00000000  2.29050552
   6.61435015 11.21954403  4.52145595
   7.43411090  1.40264246  0.00000000
   5.78208627  1.40264246  2.29050552
   9.09498967  1.40139316  4.51394601
   4.95980869 11.19248651  6.79519198
   7.47045574  1.38429673  6.78041451
   4.95607393  2.80528492  0.00000000
   8.26012323  2.80528492  2.29050552
   6.58875416  2.80768169  4.55629729
   7.43411090  4.20792738  0.00000000
   5.78208627  4.20792738  2.29050552
   9.09915505  4.20794900  4.49827196
   4.96344969  2.79863831  6.87894654
   7.54440363  4.20783922  6.75065502
   4.95607393  5.61056984  0.00000000
   8.26012323  5.61056984  2.29050552
   6.58875741  5.60804042  4.55610022
   7.43411090  7.01321230  0.00000000
   5.78208627  7.01321230  2.29050552
   9.09491032  7.01441265  4.51378536
   4.96319862  5.61657710  6.87947233
   7.47047754  7.03114835  6.78013012
   4.95607393  8.41585476  0.00000000
   8.26012323  8.41585476  2.29050552
   6.61430202  8.41728025  4.52137231
   7.43411090  9.81849722  0.00000000
   5.78208627  9.81849722  2.29050552
   9.09854780  9.81856682  4.51556807
   4.95978239  8.44409862  6.79513712
   7.45097015  9.81833866  6.78833933
   4.96037653  3.52155758  8.74867660
   4.96024217  4.89294672  8.74882615
 


--------------------------------------------------------------------------------------------------------


 k-point  1 :   0.0000 0.0000 0.0000  plane waves:   60271
 k-point  2 :   0.3333 0.0000 0.0000  plane waves:   60268
 k-point  3 :   0.0000 0.3333 0.0000  plane waves:   60265
 k-point  4 :   0.3333 0.3333 0.0000  plane waves:   60311
 k-point  5 :  -0.3333 0.3333 0.0000  plane waves:   60311

 maximum and minimum number of plane-waves per node :      7570     7505

 maximum number of plane-waves:     60311
 maximum index in each direction: 
   IXMAX=   17   IYMAX=   19   IZMAX=   43
   IXMIN=  -17   IYMIN=  -19   IZMIN=  -43


 real space projection operators:
  total allocation   :      18864.38 KBytes
  max/ min on nodes  :       2454.19       2078.20


 parallel 3D FFT for wavefunctions:
    minimum data exchange during FFTs selected (reduces bandwidth)
 parallel 3D FFT for charge:
    minimum data exchange during FFTs selected (reduces bandwidth)


 total amount of memory used by VASP MPI-rank0    76003. kBytes
=======================================================================

   base      :      30000. kBytes
   nonlr-proj:       5446. kBytes
   fftplans  :       3984. kBytes
   grid      :       6141. kBytes
   one-center:        139. kBytes
   wavefun   :      30293. kBytes
 
     INWAV:  cpu time    0.0000: real time    0.0001
 Broyden mixing: mesh for mixing (old mesh)
   NGX = 35   NGY = 39   NGZ = 87
  (NGX  =108   NGY  =120   NGZ  =280)
  gives a total of 118755 points

 initial charge density was supplied:
 charge density of overlapping atoms calculated
 number of electron     652.0000000 magnetization 
 keeping initial charge density in first step


--------------------------------------------------------------------------------------------------------


 Maximum index for non-local projection operator          324
 Maximum index for augmentation-charges          550 (set IRDMAX)


--------------------------------------------------------------------------------------------------------


 First call to EWALD:  gamma=   0.126
 Maximum number of real-space cells 4x 3x 2
 Maximum number of reciprocal cells 2x 2x 5

    FEWALD:  cpu time    0.0018: real time    0.0018


--------------------------------------- Iteration      1(   1)  ---------------------------------------


    POTLOK:  cpu time    0.0325: real time    0.0480
    SETDIJ:  cpu time    0.0041: real time    0.0042
     EDDAV:  cpu time    8.9255: real time    8.9437
       DOS:  cpu time    0.0007: real time    0.0007
    --------------------------------------------
      LOOP:  cpu time    8.9628: real time    8.9966

 eigenvalue-minimisations  :  3920
 total energy-change (2. order) : 0.4273100E+04  (-0.2657885E+05)
 number of electron     652.0000000 magnetization 
 augmentation part      652.0000000 magnetization 

 DIPCOR: dipole corrections for dipol
 direction  3 min pos   173,
 dipolmoment           0.000000      0.000000     -0.000231 electrons x Angstroem
 Tr[quadrupol]    -12829.730282

 energy correction for charged system         0.000000 eV
 dipol+quadrupol energy correction           -0.000000 eV
 added-field ion interaction          0.006318 eV  (added to PSCEN)


 Free energy of the ion-electron system (eV)
  ---------------------------------------------------
  alpha Z        PSCENC =      1437.37000234
  Ewald energy   TEWEN  =    241123.89540814
  -Hartree energ DENC   =   -291017.54756467
  -exchange      EXHF   =         0.00000000
  -V(xc)+E(xc)   XCENC  =       267.83632717
  PAW double counting   =     45245.00522118   -43438.47517393
  entropy T*S    EENTRO =        -0.16523431
  eigenvalues    EBANDS =      3127.30406659
  atomic energy  EATOM  =     47527.87699037
  Solvation  Ediel_sol  =         0.00000000
  ---------------------------------------------------
  free energy    TOTEN  =      4273.10004290 eV

  energy without entropy =     4273.26527721  energy(sigma->0) =     4273.18266005


--------------------------------------------------------------------------------------------------------




--------------------------------------- Iteration      1(   2)  ---------------------------------------


     EDDAV:  cpu time   10.6503: real time   10.6829
       DOS:  cpu time    0.0007: real time    0.0006
    --------------------------------------------
      LOOP:  cpu time   10.6509: real time   10.6835

 eigenvalue-minimisations  :  4640
 total energy-change (2. order) :-0.4328989E+04  (-0.3995128E+04)
 number of electron     652.0000000 magnetization 
 augmentation part      652.0000000 magnetization 

 DIPCOR: dipole corrections for dipol
 direction  3 min pos   173,
 dipolmoment           0.000000      0.000000     -0.000231 electrons x Angstroem
 Tr[quadrupol]    -12829.730282

 energy correction for charged system         0.000000 eV
 dipol+quadrupol energy correction           -0.000000 eV
 added-field ion interaction          0.006318 eV  (added to PSCEN)


 Free energy of the ion-electron system (eV)
  ---------------------------------------------------
  alpha Z        PSCENC =      1437.37000234
  Ewald energy   TEWEN  =    241123.89540814
  -Hartree energ DENC   =   -291017.54756467
  -exchange      EXHF   =         0.00000000
  -V(xc)+E(xc)   XCENC  =       267.83632717
  PAW double counting   =     45245.00522118   -43438.47517393
  entropy T*S    EENTRO =        -0.25536385
  eigenvalues    EBANDS =     -1201.59519035
  atomic energy  EATOM  =     47527.87699037
  Solvation  Ediel_sol  =         0.00000000
  ---------------------------------------------------
  free energy    TOTEN  =       -55.88934357 eV

  energy without entropy =      -55.63397973  energy(sigma->0) =      -55.76166165


--------------------------------------------------------------------------------------------------------




--------------------------------------- Iteration      1(   3)  ---------------------------------------


     EDDAV:  cpu time   11.7633: real time   11.7837
       DOS:  cpu time    0.0007: real time    0.0007
    --------------------------------------------
      LOOP:  cpu time   11.7640: real time   11.7844

 eigenvalue-minimisations  :  4616
 total energy-change (2. order) :-0.3334824E+03  (-0.3004971E+03)
 number of electron     652.0000000 magnetization 
 augmentation part      652.0000000 magnetization 

 DIPCOR: dipole corrections for dipol
 direction  3 min pos   173,
 dipolmoment           0.000000      0.000000     -0.000231 electrons x Angstroem
 Tr[quadrupol]    -12829.730282

 energy correction for charged system         0.000000 eV
 dipol+quadrupol energy correction           -0.000000 eV
 added-field ion interaction          0.006318 eV  (added to PSCEN)


 Free energy of the ion-electron system (eV)
  ---------------------------------------------------
  alpha Z        PSCENC =      1437.37000234
  Ewald energy   TEWEN  =    241123.89540814
  -Hartree energ DENC   =   -291017.54756467
  -exchange      EXHF   =         0.00000000
  -V(xc)+E(xc)   XCENC  =       267.83632717
  PAW double counting   =     45245.00522118   -43438.47517393
  entropy T*S    EENTRO =        -0.54370230
  eigenvalues    EBANDS =     -1534.78921175
  atomic energy  EATOM  =     47527.87699037
  Solvation  Ediel_sol  =         0.00000000
  ---------------------------------------------------
  free energy    TOTEN  =      -389.37170343 eV

  energy without entropy =     -388.82800113  energy(sigma->0) =     -389.09985228


--------------------------------------------------------------------------------------------------------




--------------------------------------- Iteration      1(   4)  ---------------------------------------


     EDDAV:  cpu time   10.9699: real time   10.9874
       DOS:  cpu time    0.0008: real time    0.0008
    --------------------------------------------
      LOOP:  cpu time   10.9707: real time   10.9882

 eigenvalue-minimisations  :  5128
 total energy-change (2. order) :-0.1680291E+02  (-0.1571499E+02)
 number of electron     652.0000000 magnetization 
 augmentation part      652.0000000 magnetization 

 DIPCOR: dipole corrections for dipol
 direction  3 min pos   173,
 dipolmoment           0.000000      0.000000     -0.000231 electrons x Angstroem
 Tr[quadrupol]    -12829.730282

 energy correction for charged system         0.000000 eV
 dipol+quadrupol energy correction           -0.000000 eV
 added-field ion interaction          0.006318 eV  (added to PSCEN)


 Free energy of the ion-electron system (eV)
  ---------------------------------------------------
  alpha Z        PSCENC =      1437.37000234
  Ewald energy   TEWEN  =    241123.89540814
  -Hartree energ DENC   =   -291017.54756467
  -exchange      EXHF   =         0.00000000
  -V(xc)+E(xc)   XCENC  =       267.83632717
  PAW double counting   =     45245.00522118   -43438.47517393
  entropy T*S    EENTRO =        -0.57802626
  eigenvalues    EBANDS =     -1551.55779602
  atomic energy  EATOM  =     47527.87699037
  Solvation  Ediel_sol  =         0.00000000
  ---------------------------------------------------
  free energy    TOTEN  =      -406.17461167 eV

  energy without entropy =     -405.59658541  energy(sigma->0) =     -405.88559854


--------------------------------------------------------------------------------------------------------




--------------------------------------- Iteration      1(   5)  ---------------------------------------


     EDDAV:  cpu time   11.2987: real time   11.3238
       DOS:  cpu time    0.0009: real time    0.0009
    CHARGE:  cpu time    0.1590: real time    0.1593
    MIXING:  cpu time    0.0015: real time    0.0016
    --------------------------------------------
      LOOP:  cpu time   11.4600: real time   11.4857

 eigenvalue-minimisations  :  5312
 total energy-change (2. order) :-0.4941630E+00  (-0.4894291E+00)
 number of electron     652.0000032 magnetization 
 augmentation part      187.6500024 magnetization 

 DIPCOR: dipole corrections for dipol
 direction  3 min pos   173,
 dipolmoment           0.000000      0.000000     -0.000231 electrons x Angstroem
 Tr[quadrupol]    -12829.730282

 energy correction for charged system         0.000000 eV
 dipol+quadrupol energy correction           -0.000000 eV
 added-field ion interaction          0.006318 eV  (added to PSCEN)


 Broyden mixing:
  rms(total) = 0.80385E+01    rms(broyden)= 0.80381E+01
  rms(prec ) = 0.81457E+01
  weight for this iteration     100.00

 Free energy of the ion-electron system (eV)
  ---------------------------------------------------
  alpha Z        PSCENC =      1437.37000234
  Ewald energy   TEWEN  =    241123.89540814
  -Hartree energ DENC   =   -291017.54756467
  -exchange      EXHF   =         0.00000000
  -V(xc)+E(xc)   XCENC  =       267.83632717
  PAW double counting   =     45245.00522118   -43438.47517393
  entropy T*S    EENTRO =        -0.57874824
  eigenvalues    EBANDS =     -1552.05123703
  atomic energy  EATOM  =     47527.87699037
  Solvation  Ediel_sol  =         0.00000000
  ---------------------------------------------------
  free energy    TOTEN  =      -406.66877465 eV

  energy without entropy =     -406.09002641  energy(sigma->0) =     -406.37940053


--------------------------------------------------------------------------------------------------------




--------------------------------------- Iteration      1(   6)  ---------------------------------------


    POTLOK:  cpu time    0.0317: real time    0.0380
    SETDIJ:  cpu time    0.0036: real time    0.0036
    EDDIAG:  cpu time    1.2917: real time    1.2934
  RMM-DIIS:  cpu time    3.7308: real time    3.7384
    ORTHCH:  cpu time    0.6155: real time    0.6159
       DOS:  cpu time    0.0009: real time    0.0009
    CHARGE:  cpu time    0.1542: real time    0.1545
    MIXING:  cpu time    0.0012: real time    0.0014
    --------------------------------------------
      LOOP:  cpu time    5.8295: real time    5.8461

 eigenvalue-minimisations  :  3937
 total energy-change (2. order) : 0.1211126E+02  (-0.7676443E+01)
 number of electron     652.0000060 magnetization 
 augmentation part      198.7110934 magnetization 

 DIPCOR: dipole corrections for dipol
 direction  3 min pos   188,
 dipolmoment           0.000000      0.000000      0.049466 electrons x Angstroem
 Tr[quadrupol]    -12819.085556

 energy correction for charged system         0.000000 eV
 dipol+quadrupol energy correction           -0.000080 eV
 added-field ion interaction          1.457188 eV  (added to PSCEN)


 Broyden mixing:
  rms(total) = 0.61656E+01    rms(broyden)= 0.61650E+01
  rms(prec ) = 0.65850E+01
  weight for this iteration     100.00

 eigenvalues of (default mixing * dielectric matrix)
  average eigenvalue GAMMA=   1.0542
  1.0542

 Free energy of the ion-electron system (eV)
  ---------------------------------------------------
  alpha Z        PSCENC =      1438.82079323
  Ewald energy   TEWEN  =    241123.89540814
  -Hartree energ DENC   =   -290246.68924236
  -exchange      EXHF   =         0.00000000
  -V(xc)+E(xc)   XCENC  =       252.37925273
  PAW double counting   =     49563.88250351   -47848.83732483
  entropy T*S    EENTRO =        -0.62379590
  eigenvalues    EBANDS =     -2205.26210412
  atomic energy  EATOM  =     47527.87699037
  Solvation  Ediel_sol  =         0.00000000
  ---------------------------------------------------
  free energy    TOTEN  =      -394.55751923 eV

  energy without entropy =     -393.93372333  energy(sigma->0) =     -394.24562128


--------------------------------------------------------------------------------------------------------




--------------------------------------- Iteration      1(   7)  ---------------------------------------


    POTLOK:  cpu time    0.0280: real time    0.0281
    SETDIJ:  cpu time    0.0036: real time    0.0036
    EDDIAG:  cpu time    1.2851: real time    1.2868
  RMM-DIIS:  cpu time    3.7159: real time    3.7212
    ORTHCH:  cpu time    0.6147: real time    0.6153
       DOS:  cpu time    0.0009: real time    0.0008
    CHARGE:  cpu time    0.1563: real time    0.1566
    MIXING:  cpu time    0.0011: real time    0.0011
    --------------------------------------------
      LOOP:  cpu time    5.8055: real time    5.8135

 eigenvalue-minimisations  :  3946
 total energy-change (2. order) :-0.9339829E+02  (-0.1600095E+02)
 number of electron     652.0000023 magnetization 
 augmentation part      194.2948751 magnetization 

 DIPCOR: dipole corrections for dipol
 direction  3 min pos   182,
 dipolmoment           0.000000      0.000000      2.474243 electrons x Angstroem
 Tr[quadrupol]    -12842.277078

 energy correction for charged system         0.000000 eV
 dipol+quadrupol energy correction           -0.199207 eV
 added-field ion interaction         16.643899 eV  (added to PSCEN)


 Broyden mixing:
  rms(total) = 0.75171E+01    rms(broyden)= 0.75165E+01
  rms(prec ) = 0.95636E+01
  weight for this iteration     100.00

 eigenvalues of (default mixing * dielectric matrix)
  average eigenvalue GAMMA=   1.0395
  1.8181  0.2608

 Free energy of the ion-electron system (eV)
  ---------------------------------------------------
  alpha Z        PSCENC =      1453.80837677
  Ewald energy   TEWEN  =    241123.89540814
  -Hartree energ DENC   =   -290798.91008580
  -exchange      EXHF   =         0.00000000
  -V(xc)+E(xc)   XCENC  =       246.53124330
  PAW double counting   =     52149.66042106   -50462.17260690
  entropy T*S    EENTRO =        -0.31666584
  eigenvalues    EBANDS =     -1728.32888969
  atomic energy  EATOM  =     47527.87699037
  Solvation  Ediel_sol  =         0.00000000
  ---------------------------------------------------
  free energy    TOTEN  =      -487.95580858 eV

  energy without entropy =     -487.63914274  energy(sigma->0) =     -487.79747566


--------------------------------------------------------------------------------------------------------




--------------------------------------- Iteration      1(   8)  ---------------------------------------


    POTLOK:  cpu time    0.0303: real time    0.0324
    SETDIJ:  cpu time    0.0036: real time    0.0036
    EDDIAG:  cpu time    1.2864: real time    1.2908
  RMM-DIIS:  cpu time    3.7249: real time    3.7297
    ORTHCH:  cpu time    0.6140: real time    0.6145
       DOS:  cpu time    0.0007: real time    0.0007
    CHARGE:  cpu time    0.1546: real time    0.1550
    MIXING:  cpu time    0.0010: real time    0.0010
    --------------------------------------------
      LOOP:  cpu time    5.8155: real time    5.8277

 eigenvalue-minimisations  :  3936
 total energy-change (2. order) :-0.5087429E+02  (-0.1474458E+02)
 number of electron     652.0000024 magnetization 
 augmentation part      195.5578191 magnetization 

 DIPCOR: dipole corrections for dipol
 direction  3 min pos   182,
 dipolmoment           0.000000      0.000000     -3.818928 electrons x Angstroem
 Tr[quadrupol]    -12834.447560

 energy correction for charged system         0.000000 eV
 dipol+quadrupol energy correction           -0.474572 eV
 added-field ion interaction        -25.689414 eV  (added to PSCEN)


 Broyden mixing:
  rms(total) = 0.83763E+01    rms(broyden)= 0.83761E+01
  rms(prec ) = 0.11631E+02
  weight for this iteration     100.00

 eigenvalues of (default mixing * dielectric matrix)
  average eigenvalue GAMMA=   0.8872
  2.1774  0.3110  0.1732

 Free energy of the ion-electron system (eV)
  ---------------------------------------------------
  alpha Z        PSCENC =      1411.19969940
  Ewald energy   TEWEN  =    241123.89540814
  -Hartree energ DENC   =   -290516.09678481
  -exchange      EXHF   =         0.00000000
  -V(xc)+E(xc)   XCENC  =       242.45067820
  PAW double counting   =     54821.96297668   -53171.64779887
  entropy T*S    EENTRO =        -0.32970284
  eigenvalues    EBANDS =     -1978.14156127
  atomic energy  EATOM  =     47527.87699037
  Solvation  Ediel_sol  =         0.00000000
  ---------------------------------------------------
  free energy    TOTEN  =      -538.83009499 eV

  energy without entropy =     -538.50039215  energy(sigma->0) =     -538.66524357


--------------------------------------------------------------------------------------------------------




--------------------------------------- Iteration      1(   9)  ---------------------------------------


    POTLOK:  cpu time    0.0316: real time    0.0435
    SETDIJ:  cpu time    0.0036: real time    0.0036
    EDDIAG:  cpu time    1.2909: real time    1.2929
  RMM-DIIS:  cpu time    3.7022: real time    3.7102
    ORTHCH:  cpu time    0.6151: real time    0.6156
       DOS:  cpu time    0.0008: real time    0.0008
    CHARGE:  cpu time    0.1582: real time    0.1585
    MIXING:  cpu time    0.0010: real time    0.0010
    --------------------------------------------
      LOOP:  cpu time    5.8034: real time    5.8261

 eigenvalue-minimisations  :  3941
 total energy-change (2. order) : 0.1370555E+03  (-0.5960828E+01)
 number of electron     652.0000041 magnetization 
 augmentation part      201.4209219 magnetization 

 DIPCOR: dipole corrections for dipol
 direction  3 min pos   185,
 dipolmoment           0.000000      0.000000      0.799680 electrons x Angstroem
 Tr[quadrupol]    -12829.258793

 energy correction for charged system         0.000000 eV
 dipol+quadrupol energy correction           -0.020809 eV
 added-field ion interaction         14.468274 eV  (added to PSCEN)


 Broyden mixing:
  rms(total) = 0.36955E+01    rms(broyden)= 0.36953E+01
  rms(prec ) = 0.52664E+01
  weight for this iteration     100.00

 eigenvalues of (default mixing * dielectric matrix)
  average eigenvalue GAMMA=   0.8230
  2.2465  0.5528  0.3551  0.1375

 Free energy of the ion-electron system (eV)
  ---------------------------------------------------
  alpha Z        PSCENC =      1451.81114919
  Ewald energy   TEWEN  =    241123.89540814
  -Hartree energ DENC   =   -290246.36796221
  -exchange      EXHF   =         0.00000000
  -V(xc)+E(xc)   XCENC  =       240.96008872
  PAW double counting   =     56340.98727555   -54713.26807090
  entropy T*S    EENTRO =        -0.51114801
  eigenvalues    EBANDS =     -2127.15829050
  atomic energy  EATOM  =     47527.87699037
  Solvation  Ediel_sol  =         0.00000000
  ---------------------------------------------------
  free energy    TOTEN  =      -401.77455965 eV

  energy without entropy =     -401.26341165  energy(sigma->0) =     -401.51898565


--------------------------------------------------------------------------------------------------------




--------------------------------------- Iteration      1(  10)  ---------------------------------------


    POTLOK:  cpu time    0.0313: real time    0.0379
    SETDIJ:  cpu time    0.0036: real time    0.0036
    EDDIAG:  cpu time    1.3013: real time    1.3030
  RMM-DIIS:  cpu time    3.7098: real time    3.7155
    ORTHCH:  cpu time    0.6146: real time    0.6152
       DOS:  cpu time    0.0008: real time    0.0008
    CHARGE:  cpu time    0.1590: real time    0.1593
    MIXING:  cpu time    0.0011: real time    0.0011
    --------------------------------------------
      LOOP:  cpu time    5.8214: real time    5.8363

 eigenvalue-minimisations  :  3922
 total energy-change (2. order) :-0.1028290E+01  (-0.4207451E+01)
 number of electron     652.0000043 magnetization 
 augmentation part      200.5176551 magnetization 

 DIPCOR: dipole corrections for dipol
 direction  3 min pos   182,
 dipolmoment           0.000000      0.000000     -1.197446 electrons x Angstroem
 Tr[quadrupol]    -12829.227213

 energy correction for charged system         0.000000 eV
 dipol+quadrupol energy correction           -0.046658 eV
 added-field ion interaction         -8.055055 eV  (added to PSCEN)


 Broyden mixing:
  rms(total) = 0.39577E+01    rms(broyden)= 0.39576E+01
  rms(prec ) = 0.51640E+01
  weight for this iteration     100.00

 eigenvalues of (default mixing * dielectric matrix)
  average eigenvalue GAMMA=   0.7408
  2.1820  0.7550  0.4053  0.2392  0.1223

 Free energy of the ion-electron system (eV)
  ---------------------------------------------------
  alpha Z        PSCENC =      1429.26197106
  Ewald energy   TEWEN  =    241123.89540814
  -Hartree energ DENC   =   -290314.88472914
  -exchange      EXHF   =         0.00000000
  -V(xc)+E(xc)   XCENC  =       242.42440556
  PAW double counting   =     56764.53793132   -55138.38337659
  entropy T*S    EENTRO =        -0.60338673
  eigenvalues    EBANDS =     -2036.92806361
  atomic energy  EATOM  =     47527.87699037
  Solvation  Ediel_sol  =         0.00000000
  ---------------------------------------------------
  free energy    TOTEN  =      -402.80284960 eV

  energy without entropy =     -402.19946287  energy(sigma->0) =     -402.50115624


--------------------------------------------------------------------------------------------------------




--------------------------------------- Iteration      1(  11)  ---------------------------------------


    POTLOK:  cpu time    0.0287: real time    0.0289
    SETDIJ:  cpu time    0.0036: real time    0.0036
    EDDIAG:  cpu time    1.2924: real time    1.2943
  RMM-DIIS:  cpu time    3.6900: real time    3.6982
    ORTHCH:  cpu time    0.6202: real time    0.6208
       DOS:  cpu time    0.0009: real time    0.0009
    CHARGE:  cpu time    0.1638: real time    0.1642
    MIXING:  cpu time    0.0011: real time    0.0011
    --------------------------------------------
      LOOP:  cpu time    5.8007: real time    5.8118

 eigenvalue-minimisations  :  3928
 total energy-change (2. order) : 0.1773874E+02  (-0.1030975E+01)
 number of electron     652.0000037 magnetization 
 augmentation part      200.7364404 magnetization 

 DIPCOR: dipole corrections for dipol
 direction  3 min pos   185,
 dipolmoment           0.000000      0.000000     -0.071907 electrons x Angstroem
 Tr[quadrupol]    -12829.012536

 energy correction for charged system         0.000000 eV
 dipol+quadrupol energy correction           -0.000168 eV
 added-field ion interaction         -1.300979 eV  (added to PSCEN)


 Broyden mixing:
  rms(total) = 0.20866E+01    rms(broyden)= 0.20859E+01
  rms(prec ) = 0.24803E+01
  weight for this iteration     100.00

 eigenvalues of (default mixing * dielectric matrix)
  average eigenvalue GAMMA=   0.6904
  1.8648  1.0866  0.4871  0.2889  0.2889  0.1258

 Free energy of the ion-electron system (eV)
  ---------------------------------------------------
  alpha Z        PSCENC =      1436.06253777
  Ewald energy   TEWEN  =    241123.89540814
  -Hartree energ DENC   =   -290341.07567620
  -exchange      EXHF   =         0.00000000
  -V(xc)+E(xc)   XCENC  =       244.15540124
  PAW double counting   =     56749.97528171   -55120.06082816
  entropy T*S    EENTRO =        -0.59235446
  eigenvalues    EBANDS =     -2005.30086973
  atomic energy  EATOM  =     47527.87699037
  Solvation  Ediel_sol  =         0.00000000
  ---------------------------------------------------
  free energy    TOTEN  =      -385.06410931 eV

  energy without entropy =     -384.47175485  energy(sigma->0) =     -384.76793208


--------------------------------------------------------------------------------------------------------




--------------------------------------- Iteration      1(  12)  ---------------------------------------


    POTLOK:  cpu time    0.0294: real time    0.0295
    SETDIJ:  cpu time    0.0036: real time    0.0036
    EDDIAG:  cpu time    1.2861: real time    1.2878
  RMM-DIIS:  cpu time    3.7042: real time    3.7094
    ORTHCH:  cpu time    0.6137: real time    0.6141
       DOS:  cpu time    0.0009: real time    0.0009
    CHARGE:  cpu time    0.1622: real time    0.1625
    MIXING:  cpu time    0.0012: real time    0.0012
    --------------------------------------------
      LOOP:  cpu time    5.8011: real time    5.8091

 eigenvalue-minimisations  :  3930
 total energy-change (2. order) : 0.6222168E+00  (-0.5111352E+00)
 number of electron     652.0000039 magnetization 
 augmentation part      200.1941407 magnetization 

 DIPCOR: dipole corrections for dipol
 direction  3 min pos   183,
 dipolmoment           0.000000      0.000000     -0.472756 electrons x Angstroem
 Tr[quadrupol]    -12827.182685

 energy correction for charged system         0.000000 eV
 dipol+quadrupol energy correction           -0.007273 eV
 added-field ion interaction         -4.971231 eV  (added to PSCEN)


 Broyden mixing:
  rms(total) = 0.21187E+01    rms(broyden)= 0.21185E+01
  rms(prec ) = 0.30382E+01
  weight for this iteration     100.00

 eigenvalues of (default mixing * dielectric matrix)
  average eigenvalue GAMMA=   0.6613
  1.8933  1.0257  0.5425  0.5425  0.2504  0.2504  0.1242

 Free energy of the ion-electron system (eV)
  ---------------------------------------------------
  alpha Z        PSCENC =      1432.38518056
  Ewald energy   TEWEN  =    241123.89540814
  -Hartree energ DENC   =   -290322.89135772
  -exchange      EXHF   =         0.00000000
  -V(xc)+E(xc)   XCENC  =       245.25226695
  PAW double counting   =     56473.21341479   -54835.90714524
  entropy T*S    EENTRO =        -0.64102497
  eigenvalues    EBANDS =     -2027.62562543
  atomic energy  EATOM  =     47527.87699037
  Solvation  Ediel_sol  =         0.00000000
  ---------------------------------------------------
  free energy    TOTEN  =      -384.44189255 eV

  energy without entropy =     -383.80086758  energy(sigma->0) =     -384.12138006


--------------------------------------------------------------------------------------------------------




--------------------------------------- Iteration      1(  13)  ---------------------------------------


    POTLOK:  cpu time    0.0295: real time    0.0296
    SETDIJ:  cpu time    0.0036: real time    0.0036
    EDDIAG:  cpu time    1.2858: real time    1.2874
  RMM-DIIS:  cpu time    3.6536: real time    3.6617
    ORTHCH:  cpu time    0.6138: real time    0.6143
       DOS:  cpu time    0.0009: real time    0.0009
    CHARGE:  cpu time    0.1661: real time    0.1663
    MIXING:  cpu time    0.0012: real time    0.0012
    --------------------------------------------
      LOOP:  cpu time    5.7544: real time    5.7650

 eigenvalue-minimisations  :  3936
 total energy-change (2. order) : 0.3548322E+01  (-0.2022071E+00)
 number of electron     652.0000040 magnetization 
 augmentation part      200.2674965 magnetization 

 DIPCOR: dipole corrections for dipol
 direction  3 min pos   190,
 dipolmoment           0.000000      0.000000     -0.086709 electrons x Angstroem
 Tr[quadrupol]    -12826.784273

 energy correction for charged system         0.000000 eV
 dipol+quadrupol energy correction           -0.000245 eV
 added-field ion interaction         -3.211289 eV  (added to PSCEN)


 Broyden mixing:
  rms(total) = 0.12581E+01    rms(broyden)= 0.12579E+01
  rms(prec ) = 0.14455E+01
  weight for this iteration     100.00

 eigenvalues of (default mixing * dielectric matrix)
  average eigenvalue GAMMA=   0.6491
  2.0722  0.8507  0.8507  0.6091  0.2636  0.2636  0.1241  0.1590

 Free energy of the ion-electron system (eV)
  ---------------------------------------------------
  alpha Z        PSCENC =      1434.15215064
  Ewald energy   TEWEN  =    241123.89540814
  -Hartree energ DENC   =   -290315.14576336
  -exchange      EXHF   =         0.00000000
  -V(xc)+E(xc)   XCENC  =       245.51373067
  PAW double counting   =     56535.56237823   -54897.98471342
  entropy T*S    EENTRO =        -0.62652597
  eigenvalues    EBANDS =     -2034.13722560
  atomic energy  EATOM  =     47527.87699037
  Solvation  Ediel_sol  =         0.00000000
  ---------------------------------------------------
  free energy    TOTEN  =      -380.89357030 eV

  energy without entropy =     -380.26704433  energy(sigma->0) =     -380.58030731


--------------------------------------------------------------------------------------------------------




--------------------------------------- Iteration      1(  14)  ---------------------------------------


    POTLOK:  cpu time    0.0300: real time    0.0303
    SETDIJ:  cpu time    0.0036: real time    0.0036
    EDDIAG:  cpu time    1.2891: real time    1.2908
  RMM-DIIS:  cpu time    3.6888: real time    3.6938
    ORTHCH:  cpu time    0.6141: real time    0.6147
       DOS:  cpu time    0.0009: real time    0.0009
    CHARGE:  cpu time    0.1563: real time    0.1590
    MIXING:  cpu time    0.0014: real time    0.0014
    --------------------------------------------
      LOOP:  cpu time    5.7841: real time    5.7944

 eigenvalue-minimisations  :  3936
 total energy-change (2. order) : 0.6004281E+00  (-0.8151919E-01)
 number of electron     652.0000051 magnetization 
 augmentation part      200.5071703 magnetization 

 DIPCOR: dipole corrections for dipol
 direction  3 min pos   190,
 dipolmoment           0.000000      0.000000      0.118391 electrons x Angstroem
 Tr[quadrupol]    -12827.133300

 energy correction for charged system         0.000000 eV
 dipol+quadrupol energy correction           -0.000456 eV
 added-field ion interaction          4.384651 eV  (added to PSCEN)


 Broyden mixing:
  rms(total) = 0.90205E+00    rms(broyden)= 0.90131E+00
  rms(prec ) = 0.11199E+01
  weight for this iteration     100.00

 eigenvalues of (default mixing * dielectric matrix)
  average eigenvalue GAMMA=   0.6216
  2.1421  0.8522  0.8522  0.6913  0.2799  0.2799  0.1245  0.1861  0.1861

 Free energy of the ion-electron system (eV)
  ---------------------------------------------------
  alpha Z        PSCENC =      1441.74787969
  Ewald energy   TEWEN  =    241123.89540814
  -Hartree energ DENC   =   -290310.94066438
  -exchange      EXHF   =         0.00000000
  -V(xc)+E(xc)   XCENC  =       245.36622469
  PAW double counting   =     56667.40425846   -55031.48891734
  entropy T*S    EENTRO =        -0.67129071
  eigenvalues    EBANDS =     -2043.48303107
  atomic energy  EATOM  =     47527.87699037
  Solvation  Ediel_sol  =         0.00000000
  ---------------------------------------------------
  free energy    TOTEN  =      -380.29314215 eV

  energy without entropy =     -379.62185144  energy(sigma->0) =     -379.95749679


--------------------------------------------------------------------------------------------------------




--------------------------------------- Iteration      1(  15)  ---------------------------------------


    POTLOK:  cpu time    0.0300: real time    0.0311
    SETDIJ:  cpu time    0.0036: real time    0.0036
    EDDIAG:  cpu time    1.2878: real time    1.2893
  RMM-DIIS:  cpu time    3.7482: real time    3.7542
    ORTHCH:  cpu time    0.6137: real time    0.6143
       DOS:  cpu time    0.0008: real time    0.0008
    CHARGE:  cpu time    0.1583: real time    0.1585
    MIXING:  cpu time    0.0014: real time    0.0014
    --------------------------------------------
      LOOP:  cpu time    5.8439: real time    5.8532

 eigenvalue-minimisations  :  3976
 total energy-change (2. order) : 0.3710712E+00  (-0.1631802E-01)
 number of electron     652.0000043 magnetization 
 augmentation part      200.4173078 magnetization 

 DIPCOR: dipole corrections for dipol
 direction  3 min pos   192,
 dipolmoment           0.000000      0.000000      0.060747 electrons x Angstroem
 Tr[quadrupol]    -12827.183129

 energy correction for charged system         0.000000 eV
 dipol+quadrupol energy correction           -0.000120 eV
 added-field ion interaction          2.710101 eV  (added to PSCEN)


 Broyden mixing:
  rms(total) = 0.58243E+00    rms(broyden)= 0.58209E+00
  rms(prec ) = 0.66654E+00
  weight for this iteration     100.00

 eigenvalues of (default mixing * dielectric matrix)
  average eigenvalue GAMMA=   0.5945
  2.1490  0.8965  0.8965  0.6157  0.3205  0.3205  0.2384  0.2384  0.1243  0.1460

 Free energy of the ion-electron system (eV)
  ---------------------------------------------------
  alpha Z        PSCENC =      1440.07366579
  Ewald energy   TEWEN  =    241123.89540814
  -Hartree energ DENC   =   -290309.73361381
  -exchange      EXHF   =         0.00000000
  -V(xc)+E(xc)   XCENC  =       245.15076578
  PAW double counting   =     56728.46489884   -55093.38223120
  entropy T*S    EENTRO =        -0.68903372
  eigenvalues    EBANDS =     -2041.57892114
  atomic energy  EATOM  =     47527.87699037
  Solvation  Ediel_sol  =         0.00000000
  ---------------------------------------------------
  free energy    TOTEN  =      -379.92207095 eV

  energy without entropy =     -379.23303723  energy(sigma->0) =     -379.57755409


--------------------------------------------------------------------------------------------------------




--------------------------------------- Iteration      1(  16)  ---------------------------------------


    POTLOK:  cpu time    0.0311: real time    0.0427
    SETDIJ:  cpu time    0.0036: real time    0.0036
    EDDIAG:  cpu time    1.3262: real time    1.3289
  RMM-DIIS:  cpu time    3.6764: real time    3.6848
    ORTHCH:  cpu time    0.6141: real time    0.6146
       DOS:  cpu time    0.0009: real time    0.0009
    CHARGE:  cpu time    0.1581: real time    0.1583
    MIXING:  cpu time    0.0016: real time    0.0016
    --------------------------------------------
      LOOP:  cpu time    5.8119: real time    5.8353

 eigenvalue-minimisations  :  3946
 total energy-change (2. order) : 0.2952922E-01  (-0.4976311E-02)
 number of electron     652.0000043 magnetization 
 augmentation part      200.4425877 magnetization 

 DIPCOR: dipole corrections for dipol
 direction  3 min pos   191,
 dipolmoment           0.000000      0.000000      0.060862 electrons x Angstroem
 Tr[quadrupol]    -12827.189031

 energy correction for charged system         0.000000 eV
 dipol+quadrupol energy correction           -0.000121 eV
 added-field ion interaction          2.484632 eV  (added to PSCEN)


 Broyden mixing:
  rms(total) = 0.50505E+00    rms(broyden)= 0.50503E+00
  rms(prec ) = 0.57123E+00
  weight for this iteration     100.00

 eigenvalues of (default mixing * dielectric matrix)
  average eigenvalue GAMMA=   0.5914
  2.1137  0.9578  0.9578  0.5523  0.5523  0.4340  0.2542  0.2542  0.1244  0.1525
  0.1525

 Free energy of the ion-electron system (eV)
  ---------------------------------------------------
  alpha Z        PSCENC =      1439.84819639
  Ewald energy   TEWEN  =    241123.89540814
  -Hartree energ DENC   =   -290308.98777873
  -exchange      EXHF   =         0.00000000
  -V(xc)+E(xc)   XCENC  =       245.11431756
  PAW double counting   =     56732.85405642   -55097.86257667
  entropy T*S    EENTRO =        -0.68840575
  eigenvalues    EBANDS =     -2041.94274946
  atomic energy  EATOM  =     47527.87699037
  Solvation  Ediel_sol  =         0.00000000
  ---------------------------------------------------
  free energy    TOTEN  =      -379.89254173 eV

  energy without entropy =     -379.20413598  energy(sigma->0) =     -379.54833886


--------------------------------------------------------------------------------------------------------




--------------------------------------- Iteration      1(  17)  ---------------------------------------


    POTLOK:  cpu time    0.0316: real time    0.0389
    SETDIJ:  cpu time    0.0036: real time    0.0036
    EDDIAG:  cpu time    1.2956: real time    1.2977
  RMM-DIIS:  cpu time    3.6912: real time    3.6965
    ORTHCH:  cpu time    0.6134: real time    0.6139
       DOS:  cpu time    0.0009: real time    0.0009
    CHARGE:  cpu time    0.1563: real time    0.1566
    MIXING:  cpu time    0.0016: real time    0.0016
    --------------------------------------------
      LOOP:  cpu time    5.7942: real time    5.8097

 eigenvalue-minimisations  :  3933
 total energy-change (2. order) : 0.3092918E-01  (-0.3686192E-02)
 number of electron     652.0000044 magnetization 
 augmentation part      200.4633267 magnetization 

 DIPCOR: dipole corrections for dipol
 direction  3 min pos   191,
 dipolmoment           0.000000      0.000000      0.055850 electrons x Angstroem
 Tr[quadrupol]    -12827.240957

 energy correction for charged system         0.000000 eV
 dipol+quadrupol energy correction           -0.000101 eV
 added-field ion interaction          2.280024 eV  (added to PSCEN)


 Broyden mixing:
  rms(total) = 0.42139E+00    rms(broyden)= 0.42135E+00
  rms(prec ) = 0.47264E+00
  weight for this iteration     100.00

 eigenvalues of (default mixing * dielectric matrix)
  average eigenvalue GAMMA=   0.6527
  1.8451  1.3579  1.3579  0.7879  0.7879  0.4756  0.2821  0.2821  0.2156  0.1244
  0.1753  0.1407

 Free energy of the ion-electron system (eV)
  ---------------------------------------------------
  alpha Z        PSCENC =      1439.64360688
  Ewald energy   TEWEN  =    241123.89540814
  -Hartree energ DENC   =   -290311.83219342
  -exchange      EXHF   =         0.00000000
  -V(xc)+E(xc)   XCENC  =       245.18915832
  PAW double counting   =     56707.20151099   -55071.79634065
  entropy T*S    EENTRO =        -0.69520422
  eigenvalues    EBANDS =     -2039.34454896
  atomic energy  EATOM  =     47527.87699037
  Solvation  Ediel_sol  =         0.00000000
  ---------------------------------------------------
  free energy    TOTEN  =      -379.86161255 eV

  energy without entropy =     -379.16640833  energy(sigma->0) =     -379.51401044


--------------------------------------------------------------------------------------------------------




--------------------------------------- Iteration      1(  18)  ---------------------------------------


    POTLOK:  cpu time    0.0316: real time    0.0339
    SETDIJ:  cpu time    0.0036: real time    0.0036
    EDDIAG:  cpu time    1.2919: real time    1.2943
  RMM-DIIS:  cpu time    3.6803: real time    3.6887
    ORTHCH:  cpu time    0.6149: real time    0.6154
       DOS:  cpu time    0.0009: real time    0.0009
    CHARGE:  cpu time    0.1610: real time    0.1612
    MIXING:  cpu time    0.0017: real time    0.0017
    --------------------------------------------
      LOOP:  cpu time    5.7859: real time    5.7997

 eigenvalue-minimisations  :  3934
 total energy-change (2. order) : 0.9804553E-02  (-0.9953079E-02)
 number of electron     652.0000043 magnetization 
 augmentation part      200.3519877 magnetization 

 DIPCOR: dipole corrections for dipol
 direction  3 min pos   191,
 dipolmoment           0.000000      0.000000      0.059202 electrons x Angstroem
 Tr[quadrupol]    -12827.466965

 energy correction for charged system         0.000000 eV
 dipol+quadrupol energy correction           -0.000114 eV
 added-field ion interaction          2.416861 eV  (added to PSCEN)


 Broyden mixing:
  rms(total) = 0.31427E+00    rms(broyden)= 0.31425E+00
  rms(prec ) = 0.39426E+00
  weight for this iteration     100.00

 eigenvalues of (default mixing * dielectric matrix)
  average eigenvalue GAMMA=   0.6927
  1.9304  1.9304  1.2849  0.8333  0.7485  0.7485  0.3226  0.2768  0.2768  0.2227
  0.1244  0.1660  0.1397

 Free energy of the ion-electron system (eV)
  ---------------------------------------------------
  alpha Z        PSCENC =      1439.78043156
  Ewald energy   TEWEN  =    241123.89540814
  -Hartree energ DENC   =   -290323.18486399
  -exchange      EXHF   =         0.00000000
  -V(xc)+E(xc)   XCENC  =       245.44262753
  PAW double counting   =     56638.31565199   -55001.35388118
  entropy T*S    EENTRO =        -0.69779358
  eigenvalues    EBANDS =     -2029.92637884
  atomic energy  EATOM  =     47527.87699037
  Solvation  Ediel_sol  =         0.00000000
  ---------------------------------------------------
  free energy    TOTEN  =      -379.85180800 eV

  energy without entropy =     -379.15401441  energy(sigma->0) =     -379.50291120


--------------------------------------------------------------------------------------------------------




--------------------------------------- Iteration      1(  19)  ---------------------------------------


    POTLOK:  cpu time    0.0316: real time    0.0332
    SETDIJ:  cpu time    0.0036: real time    0.0036
    EDDIAG:  cpu time    1.2902: real time    1.2920
  RMM-DIIS:  cpu time    3.7152: real time    3.7207
    ORTHCH:  cpu time    0.6108: real time    0.6114
       DOS:  cpu time    0.0009: real time    0.0009
    CHARGE:  cpu time    0.1592: real time    0.1595
    MIXING:  cpu time    0.0018: real time    0.0018
    --------------------------------------------
      LOOP:  cpu time    5.8133: real time    5.8231

 eigenvalue-minimisations  :  3934
 total energy-change (2. order) : 0.3683065E-01  (-0.1029067E-01)
 number of electron     652.0000040 magnetization 
 augmentation part      200.2334461 magnetization 

 DIPCOR: dipole corrections for dipol
 direction  3 min pos   189,
 dipolmoment           0.000000      0.000000      0.023974 electrons x Angstroem
 Tr[quadrupol]    -12827.825080

 energy correction for charged system         0.000000 eV
 dipol+quadrupol energy correction           -0.000019 eV
 added-field ion interaction          0.797070 eV  (added to PSCEN)


 Broyden mixing:
  rms(total) = 0.22590E+00    rms(broyden)= 0.22568E+00
  rms(prec ) = 0.25575E+00
  weight for this iteration     100.00

[...]
    FORHAR:  cpu time    0.0147: real time    0.0147
    MIXING:  cpu time    0.0014: real time    0.0014
    OFIELD:  cpu time    0.0000: real time    0.0000

 ---------------------------------------------------------------------------------------------

         DFTD3 V3.0 Rev 1        
 Edisp (eV)  -34.50495

 E6    (eV) :   -12.9741
 E8    (eV) :   -21.5309
 % E8        : 62.40
    FORVDW:  cpu time    0.1766: real time    0.2079

  FORCE on cell =-STRESS in cart. coord.  units (eV):
  Direction    XX          YY          ZZ          XY          YZ          ZX
  --------------------------------------------------------------------------------------
  Alpha Z  1437.36368  1437.36368  1437.36368
  Ewald  280417.01355281171.43262************     0.01780     0.06266    70.78109
  Hartree291364.37560291670.68561************    -0.00829    -0.01231    24.54714
  E(xc)   -2890.85851 -2888.69700 -2905.41608     0.00041     0.00033     0.20035
  Local  ************************592047.18484     0.00072    -0.02886   -87.32364
  n-local   207.77832   236.72812   232.15098     0.00418     0.00973     2.85144
  augment  3380.20620  3353.58700  3417.15113    -0.00803    -0.00934    -2.85284
  Kinetic  9551.90038  9461.78382  9676.45834    -0.00750    -0.01831    -6.47265
  Fock        0.00000     0.00000     0.00000     0.00000     0.00000     0.00000
  vdW       -42.73175   -43.40770   -30.05033    -0.00064     0.00022    -0.51395
  -------------------------------------------------------------------------------------
  Total    -112.46323  -103.01016   -12.61839    -0.00134     0.00412     1.21693
  in kB     -64.80020   -59.35344    -7.27059    -0.00077     0.00237     0.70118
  external pressure =      -43.81 kB  Pullay stress =        0.00 kB


 VOLUME and BASIS-vectors are now :
 -----------------------------------------------------------------------------
  energy-cutoff  :      450.00
  volume of cell :     2780.64
      direct lattice vectors                 reciprocal lattice vectors
     9.912147860  0.000000000  0.000000000     0.100886308  0.000000000  0.000000000
     0.000000000 11.221139680  0.000000000     0.000000000  0.089117508  0.000000000
     0.000000000  0.000000000 25.000000000     0.000000000  0.000000000  0.040000000

  length of vectors
     9.912147860 11.221139680 25.000000000     0.100886308  0.089117508  0.040000000


 FORCES acting on ions
    electron-ion (+dipol)            ewald-force                    non-local-force                 convergence-correction
 -----------------------------------------------------------------------------------------------
   0.761E+00 0.742E+00 0.252E+04   -.733E+00 -.743E+00 -.252E+04   -.259E-01 -.427E-02 -.136E+01   0.125E-02 0.116E-01 0.535E-02
   -.463E+01 -.259E+01 0.892E+03   0.466E+01 0.259E+01 -.891E+03   0.716E-01 0.884E-01 -.101E+01   0.279E-02 0.175E-01 0.226E-01
   0.440E+00 0.759E+01 -.781E+03   -.284E+00 -.768E+01 0.781E+03   -.154E+00 0.639E-01 0.734E+00   0.103E-02 0.181E-01 0.230E-01
   -.213E+00 0.128E+01 0.252E+04   0.263E+00 -.134E+01 -.252E+04   -.783E-01 0.228E-02 -.138E+01   0.387E-02 0.687E-02 0.105E-01
   -.604E+00 0.568E+01 0.901E+03   0.594E+00 -.564E+01 -.901E+03   0.469E-02 -.621E-01 -.118E+01   0.299E-02 0.101E-01 0.261E-01
   0.776E+01 0.289E+02 -.796E+03   -.730E+01 -.281E+02 0.797E+03   -.463E+00 -.829E+00 -.348E+00   -.630E-03 0.984E-02 0.204E-01
   0.777E+00 0.144E+02 -.247E+04   -.758E+00 -.145E+02 0.247E+04   -.225E-02 0.112E+00 0.151E+01   -.729E-03 0.104E-01 0.450E-02
   0.288E+02 0.434E+02 -.244E+04   -.292E+02 -.436E+02 0.244E+04   0.450E+00 0.182E+00 0.170E+01   -.341E-03 0.565E-02 0.668E-03
   0.124E+01 0.871E+00 0.252E+04   -.113E+01 -.856E+00 -.252E+04   -.630E-01 0.394E-02 -.132E+01   0.127E-02 -.222E-02 0.102E-01
   -.405E+01 0.745E+01 0.902E+03   0.407E+01 -.755E+01 -.902E+03   0.806E-01 0.320E-01 -.910E+00   0.224E-02 -.403E-02 0.236E-01
   0.731E+01 0.120E+02 -.759E+03   -.718E+01 -.120E+02 0.758E+03   -.117E+00 0.822E-01 0.678E+00   0.933E-03 -.408E-02 0.197E-01
   -.159E+00 0.111E-01 0.252E+04   0.111E+00 -.123E-02 -.252E+04   -.401E-01 0.389E-04 -.134E+01   0.415E-02 -.100E-01 0.847E-02
   -.110E+00 0.231E-01 0.907E+03   -.116E-01 -.693E-02 -.906E+03   0.814E-01 -.303E-03 -.120E+01   0.304E-02 -.162E-01 0.243E-01
   0.199E+01 0.547E-01 -.753E+03   -.202E+01 -.391E-01 0.753E+03   0.365E-01 -.175E-02 0.667E+00   0.322E-03 -.149E-01 0.207E-01
   -.695E+00 0.180E+02 -.246E+04   0.598E+00 -.182E+02 0.246E+04   0.117E+00 0.206E+00 0.139E+01   -.118E-02 -.368E-02 -.113E-02
   0.636E+02 0.676E-01 -.237E+04   -.651E+02 -.569E-01 0.237E+04   0.145E+01 -.150E-02 0.213E+01   0.344E-02 -.103E-01 0.557E-02
   0.124E+01 -.854E+00 0.252E+04   -.113E+01 0.853E+00 -.252E+04   -.630E-01 -.404E-02 -.132E+01   0.118E-02 -.119E-01 0.240E-02
   -.405E+01 -.743E+01 0.902E+03   0.406E+01 0.756E+01 -.902E+03   0.804E-01 -.320E-01 -.910E+00   0.302E-02 -.179E-01 0.198E-01
   0.732E+01 -.119E+02 -.759E+03   -.720E+01 0.120E+02 0.758E+03   -.117E+00 -.822E-01 0.678E+00   0.149E-02 -.186E-01 0.239E-01
   -.214E+00 -.128E+01 0.252E+04   0.263E+00 0.134E+01 -.252E+04   -.784E-01 -.238E-02 -.138E+01   0.435E-02 -.673E-02 -.383E-03
   -.601E+00 -.567E+01 0.901E+03   0.590E+00 0.563E+01 -.901E+03   0.428E-02 0.614E-01 -.118E+01   0.342E-02 -.997E-02 0.199E-01
   0.777E+01 -.289E+02 -.796E+03   -.731E+01 0.281E+02 0.797E+03   -.464E+00 0.829E+00 -.350E+00   -.692E-04 -.107E-01 0.263E-01
   -.683E+00 -.179E+02 -.246E+04   0.585E+00 0.182E+02 0.246E+04   0.117E+00 -.205E+00 0.139E+01   -.139E-02 -.108E-01 0.694E-02
   0.287E+02 -.435E+02 -.244E+04   -.292E+02 0.437E+02 0.244E+04   0.451E+00 -.180E+00 0.170E+01   0.439E-03 -.561E-02 0.115E-01
   0.760E+00 -.758E+00 0.252E+04   -.733E+00 0.745E+00 -.252E+04   -.260E-01 0.421E-02 -.136E+01   0.125E-02 0.253E-02 -.259E-02
   -.462E+01 0.258E+01 0.892E+03   0.465E+01 -.260E+01 -.891E+03   0.714E-01 -.896E-01 -.101E+01   0.355E-02 0.447E-02 0.189E-01
   0.416E+00 -.762E+01 -.781E+03   -.261E+00 0.768E+01 0.781E+03   -.154E+00 -.627E-01 0.735E+00   0.182E-02 0.472E-02 0.270E-01
   -.233E+00 -.111E-01 0.252E+04   0.582E-01 0.144E-02 -.252E+04   0.638E-01 -.554E-04 -.127E+01   0.395E-02 0.988E-02 0.177E-02
   -.529E+00 -.251E-01 0.897E+03   0.604E+00 0.920E-02 -.896E+03   0.669E-02 -.104E-03 -.112E+01   0.315E-02 0.161E-01 0.220E-01
   0.259E+01 -.355E-01 -.774E+03   -.261E+01 0.197E-01 0.773E+03   0.246E-01 0.708E-03 0.837E+00   0.491E-03 0.151E-01 0.240E-01
   0.777E+00 -.144E+02 -.247E+04   -.757E+00 0.145E+02 0.247E+04   -.328E-02 -.112E+00 0.151E+01   -.828E-03 0.455E-02 0.124E-01
   0.940E+01 0.359E-01 -.247E+04   -.941E+01 -.455E-01 0.247E+04   0.193E-01 -.150E-02 0.153E+01   0.285E-03 0.997E-02 0.865E-02
   0.691E+00 0.422E+00 0.252E+04   -.720E+00 -.464E+00 -.252E+04   -.361E-02 0.110E-01 -.130E+01   -.104E-02 0.117E-01 0.750E-02
   0.211E+01 0.193E+01 0.897E+03   -.214E+01 -.193E+01 -.896E+03   -.193E-01 -.272E-01 -.109E+01   -.315E-02 0.180E-01 0.247E-01
   -.248E+01 0.890E+01 -.779E+03   0.243E+01 -.888E+01 0.779E+03   0.561E-01 -.452E-01 0.623E+00   -.254E-02 0.166E-01 0.216E-01
   0.147E+01 0.785E+00 0.252E+04   -.139E+01 -.775E+00 -.252E+04   -.460E-01 -.108E-01 -.135E+01   -.420E-02 0.674E-02 0.100E-01
   0.226E+01 0.316E+01 0.896E+03   -.231E+01 -.316E+01 -.896E+03   -.377E-01 0.542E-01 -.878E+00   -.279E-02 0.922E-02 0.238E-01
   0.421E+00 0.100E+02 -.775E+03   -.427E+00 -.100E+02 0.774E+03   0.170E-01 -.182E-02 0.716E+00   -.136E-02 0.890E-02 0.220E-01
   -.244E+01 0.334E+02 -.245E+04   0.239E+01 -.339E+02 0.245E+04   0.600E-01 0.442E+00 0.158E+01   -.154E-02 0.122E-01 0.380E-02
   -.275E+02 0.427E+02 -.244E+04   0.279E+02 -.429E+02 0.243E+04   -.463E+00 0.194E+00 0.173E+01   -.300E-02 0.571E-02 0.118E-02
   0.270E+00 0.985E+00 0.252E+04   -.257E+00 -.997E+00 -.252E+04   -.845E-02 -.373E-03 -.136E+01   -.122E-02 -.191E-02 0.119E-01
   0.613E+01 0.265E+01 0.899E+03   -.623E+01 -.265E+01 -.898E+03   -.942E-01 -.123E-01 -.100E+01   -.213E-02 -.401E-02 0.255E-01
   -.150E+02 0.113E+02 -.773E+03   0.145E+02 -.112E+02 0.773E+03   0.509E+00 -.247E-01 0.186E+00   -.428E-02 -.475E-02 0.199E-01
   0.147E+01 0.115E-01 0.252E+04   -.139E+01 -.174E-02 -.252E+04   -.478E-01 0.972E-05 -.131E+01   -.446E-02 -.976E-02 0.778E-02
   -.312E+01 0.225E-01 0.901E+03   0.312E+01 -.719E-02 -.901E+03   -.299E-02 -.837E-04 -.840E+00   -.313E-02 -.154E-01 0.214E-01
   -.154E+01 0.270E-01 -.757E+03   0.145E+01 -.110E-01 0.756E+03   0.118E+00 -.129E-03 0.907E+00   -.185E-02 -.161E-01 0.212E-01
   -.238E+01 0.134E+03 -.226E+04   0.235E+01 -.135E+03 0.226E+04   0.508E-01 0.859E+00 0.487E+00   -.368E-02 -.106E-03 0.942E-02
   -.634E+02 0.284E-01 -.238E+04   0.651E+02 -.176E-01 0.237E+04   -.165E+01 -.136E-02 0.223E+01   -.358E-02 -.993E-02 0.695E-02
   0.270E+00 -.969E+00 0.252E+04   -.257E+00 0.995E+00 -.252E+04   -.848E-02 0.342E-03 -.136E+01   -.929E-03 -.118E-01 0.434E-02
   0.612E+01 -.262E+01 0.899E+03   -.623E+01 0.264E+01 -.898E+03   -.944E-01 0.118E-01 -.100E+01   -.268E-02 -.186E-01 0.213E-01
   -.150E+02 -.112E+02 -.773E+03   0.145E+02 0.112E+02 0.773E+03   0.508E+00 0.249E-01 0.187E+00   -.518E-02 -.172E-01 0.241E-01
   0.147E+01 -.785E+00 0.252E+04   -.139E+01 0.775E+00 -.252E+04   -.461E-01 0.107E-01 -.135E+01   -.436E-02 -.683E-02 -.861E-03
   0.227E+01 -.315E+01 0.896E+03   -.232E+01 0.315E+01 -.896E+03   -.379E-01 -.547E-01 -.877E+00   -.322E-02 -.929E-02 0.185E-01
   0.405E+00 -.100E+02 -.775E+03   -.410E+00 0.100E+02 0.774E+03   0.177E-01 0.147E-02 0.716E+00   -.200E-02 -.899E-02 0.277E-01
   -.241E+01 -.134E+03 -.226E+04   0.238E+01 0.135E+03 0.226E+04   0.550E-01 -.858E+00 0.483E+00   -.372E-02 -.131E-01 0.167E-01
   -.275E+02 -.427E+02 -.244E+04   0.280E+02 0.429E+02 0.243E+04   -.462E+00 -.195E+00 0.173E+01   -.378E-02 -.640E-02 0.122E-01
   0.692E+00 -.438E+00 0.252E+04   -.721E+00 0.466E+00 -.252E+04   -.362E-02 -.111E-01 -.130E+01   -.929E-03 0.209E-02 0.956E-04
   0.210E+01 -.196E+01 0.897E+03   -.213E+01 0.193E+01 -.897E+03   -.190E-01 0.267E-01 -.109E+01   -.352E-02 0.461E-02 0.203E-01
   -.248E+01 -.894E+01 -.779E+03   0.244E+01 0.890E+01 0.779E+03   0.563E-01 0.452E-01 0.623E+00   -.366E-02 0.541E-02 0.256E-01
   0.124E+01 -.119E-01 0.252E+04   -.125E+01 0.218E-02 -.252E+04   -.201E-01 -.377E-04 -.134E+01   -.408E-02 0.985E-02 0.140E-02
   0.797E+00 -.260E-01 0.896E+03   -.808E+00 0.108E-01 -.896E+03   0.599E-01 -.258E-03 -.110E+01   -.300E-02 0.155E-01 0.212E-01
   -.225E+00 -.298E-01 -.786E+03   0.217E+00 0.136E-01 0.786E+03   0.113E-01 -.631E-04 0.654E+00   -.150E-02 0.163E-01 0.263E-01
   -.234E+01 -.335E+02 -.245E+04   0.230E+01 0.339E+02 0.245E+04   0.555E-01 -.440E+00 0.158E+01   -.161E-02 0.186E-02 0.110E-01
   -.112E+02 -.305E-01 -.246E+04   0.112E+02 0.203E-01 0.246E+04   -.453E-01 0.147E-02 0.161E+01   -.975E-03 0.102E-01 0.797E-02
   -.432E+00 0.216E+03 -.180E+04   0.668E+00 -.248E+03 0.182E+04   -.224E+00 0.320E+02 -.216E+02   -.265E-04 0.115E-02 -.908E-02
   -.331E+00 -.216E+03 -.180E+04   0.549E+00 0.248E+03 0.182E+04   -.206E+00 -.320E+02 -.216E+02   -.151E-04 -.622E-02 -.723E-02
 -----------------------------------------------------------------------------------------------
   0.757E+00 0.109E-03 0.472E+02   0.916E-12 -.119E-11 -.296E-11   -.683E+00 0.155E-02 -.484E+02   -.386E-01 -.475E-02 0.907E+00
 
 
 POSITION                                       TOTAL-FORCE (eV/Angst)
 -----------------------------------------------------------------------------------
      0.00000      0.00000      0.00000         0.006663      0.006346      0.348923
      3.30405      0.00000      2.29051         0.104948      0.104279     -0.253868
      1.67442     11.21713      4.45948         0.001333     -0.005659     -0.000988
      2.47804      1.40264      0.00000        -0.022574     -0.054581      0.350939
      0.82601      1.40264      2.29051         0.004775     -0.010066     -0.408065
      4.16048      1.44082      4.52596         0.003064     -0.010727      0.000007
      0.02324     11.20775      6.69748         0.011062      0.002424      0.010216
      2.46746      1.39292      6.69386         0.004792     -0.002576     -0.000011
      0.00000      2.80528      0.00000         0.050567      0.016949      0.270031
      3.30405      2.80528      2.29051         0.099353     -0.072955     -0.323029
      1.65474      2.79316      4.45121         0.005772     -0.005648     -0.001692
      2.47804      4.20793      0.00000        -0.081914     -0.000028      0.325967
      0.82601      4.20793      2.29051        -0.035853     -0.000255     -0.416604
      4.12114      4.20795      4.47868         0.002411     -0.001000      0.000023
      0.01285      2.78266      6.70364         0.012594      0.000936      0.011458
      2.39578      4.20788      6.65092        -0.003143     -0.001013     -0.003493
      0.00000      5.61057      0.00000         0.050615     -0.016821      0.269947
      3.30405      5.61057      2.29051         0.099309      0.072994     -0.323241
      1.65470      5.62253      4.45120         0.005185      0.005553     -0.002234
      2.47804      7.01321      0.00000        -0.022403      0.054783      0.350829
      0.82601      7.01321      2.29051         0.004496      0.009474     -0.408488
      4.16053      6.97480      4.52608         0.001707      0.011022     -0.001564
      0.01284      5.63299      6.70370         0.012083     -0.000543      0.009759
      2.46738      7.02253      6.69380         0.004933      0.003026      0.000447
      0.00000      8.41585      0.00000         0.006645     -0.006095      0.348847
      3.30405      8.41585      2.29051         0.104810     -0.104939     -0.254070
      1.67431      8.41965      4.45941         0.000754      0.007075     -0.000340
      2.47804      9.81850      0.00000        -0.104323      0.000180      0.108374
      0.82601      9.81850      2.29051         0.085379      0.000194     -0.408286
      4.14396      9.81825      4.45487         0.001436      0.000033      0.001883
      0.02328      8.42902      6.69747         0.011117     -0.002641      0.010303
      2.49488      9.81837      6.70380        -0.000964     -0.001079      0.003007
      4.95607      0.00000      0.00000        -0.029934     -0.019142      0.350005
      8.26012      0.00000      2.29051        -0.052416     -0.007137     -0.397875
      6.61609     11.22114      4.46659         0.001908     -0.000293      0.005074
      7.43411      1.40264      0.00000         0.037260      0.005967      0.327917
      5.78209      1.40264      2.29051        -0.088689      0.065093     -0.186045
      9.09819      1.39861      4.45577         0.012523     -0.003233     -0.000217
      4.97118     11.19359      6.70382         0.006691     -0.001120      0.008379
      7.48028      1.38648      6.68693         0.016799      0.000249      0.001187
      4.95607      2.80528      0.00000         0.006976     -0.015052      0.354450
      8.26012      2.80528      2.29051        -0.197486     -0.014373     -0.329641
      6.59134      2.80811      4.49866         0.008814     -0.000643      0.000652
      7.43411      4.20793      0.00000         0.028750      0.000026      0.335552
      5.78209      4.20793      2.29051        -0.003177     -0.000165     -0.175444
      9.10467      4.20786      4.44624         0.013631     -0.000149     -0.000638
      4.97086      2.79468      6.78198         0.011173     -0.001937     -0.008147
      7.55235      4.20793      6.65879         0.012157     -0.000437     -0.006069
      4.95607      5.61057      0.00000         0.007031      0.015148      0.354332
      8.26012      5.61057      2.29051        -0.197403      0.013934     -0.329997
      6.59136      5.60761      4.49867         0.008652      0.000529      0.001184
      7.43411      7.01321      0.00000         0.037279     -0.005823      0.327687
      5.78209      7.01321      2.29051        -0.088896     -0.065553     -0.186139
      9.09808      7.01709      4.45578         0.012701      0.003022      0.000330
      4.97066      5.62066      6.78226         0.013910      0.001291     -0.010794
      7.48024      7.02921      6.68710         0.016657     -0.000930      0.001181
      4.95607      8.41585      0.00000        -0.029871      0.019382      0.349907
      8.26012      8.41585      2.29051        -0.052267      0.007104     -0.398268
      6.61614      8.41567      4.46653         0.002160      0.000459      0.005400
      7.43411      9.81850      0.00000        -0.024702      0.000192      0.352592
      5.78209      9.81850      2.29051         0.042289      0.000090     -0.365831
      9.10191      9.81842      4.45858         0.004614      0.000164      0.008307
      4.97156      8.44285      6.70384         0.005523      0.002455      0.008488
      7.45820      9.81842      6.69469         0.010368      0.001571      0.007226
      4.97581      3.52112      8.65570         0.011040      0.000180     -0.010084
      4.97552      4.89387      8.65583         0.011309      0.000492     -0.009648
 -----------------------------------------------------------------------------------
    total drift:                                0.034802     -0.003093     -0.283345


--------------------------------------------------------------------------------------------------------



  FREE ENERGIE OF THE ION-ELECTRON SYSTEM (eV)
  ---------------------------------------------------
  free  energy   TOTEN  =      -414.05035120 eV

  energy  without entropy=     -413.36429417  energy(sigma->0) =     -413.70732269
 
 d Force = 0.3179498E-03[ 0.285E-03, 0.351E-03]  d Energy = 0.3201452E-03-0.220E-05
 d Force = 0.5362601E+01[ 0.536E+01, 0.536E+01]  d Ewald  = 0.5362599E+01 0.155E-05


--------------------------------------------------------------------------------------------------------


    POTLOK:  cpu time    0.0369: real time    0.0369


--------------------------------------------------------------------------------------------------------


 stress matrix after NEB project (eV)
   -112.46323     -0.00134      1.21693
     -0.00134   -103.01016      0.00412
      1.21693      0.00412    -12.61839
  FORCES: max atom, RMS     0.017654    0.008256
  FORCE total and by dimension    0.067073    0.016799
  Stress total and by dimension  153.040049  112.463228
 Quasi-Newton relaxation of ions (Broydens 2nd method)
  g(Force)  = 0.868E-04   g(Stress)= 0.000E+00

 retain information from N=  2 steps
 eigenvalues of (default step * inverse Hessian matrix)
  average eigenvalue of G=   6.9708
 eigenvalue spectrum of G is  6.9708  6.9708


--------------------------------------------------------------------------------------------------------


  
 reached required accuracy - stopping structural energy minimisation
     LOOP+:  cpu time   64.3844: real time   64.9134
    4ORBIT:  cpu time    0.0000: real time    0.0000

 total amount of memory used by VASP MPI-rank0    76003. kBytes
=======================================================================

   base      :      30000. kBytes
   nonlr-proj:       5446. kBytes
   fftplans  :       3984. kBytes
   grid      :       6141. kBytes
   one-center:        139. kBytes
   wavefun   :      30293. kBytes
 
  
  
 General timing and accounting informations for this job:
 ========================================================
  
                  Total CPU time used (sec):     1446.125
                            User time (sec):     1235.678
                          System time (sec):      210.448
                         Elapsed time (sec):     1453.716
  
                   Maximum memory used (kb):     1024932.
                   Average memory used (kb):           0.
  
                          Minor page faults:       310294
                          Major page faults:            0
                 Voluntary context switches:    108343791
