       N       E                     dE             d eps       ncg     rms          rms(c)
DAV:   1     0.434139661186E+04    0.43414E+04   -0.26917E+05   784   0.127E+03
DAV:   2    -0.559496489206E+02   -0.43973E+04   -0.40600E+04   920   0.280E+02
DAV:   3    -0.388038021476E+03   -0.33209E+03   -0.29911E+03   912   0.706E+01
DAV:   4    -0.406629554460E+03   -0.18592E+02   -0.16984E+02  1024   0.148E+01
DAV:   5    -0.407146285511E+03   -0.51673E+00   -0.51260E+00   944   0.263E+00    0.933E+01
RMM:   6    -0.412487788243E+03   -0.53415E+01   -0.81950E+01   787   0.141E+01    0.811E+01
RMM:   7    -0.461219082700E+03   -0.48731E+02   -0.17590E+02   787   0.137E+01    0.743E+01
RMM:   8    -0.638066532407E+03   -0.17685E+03   -0.20977E+02   798   0.141E+01    0.106E+02
RMM:   9    -0.441522389889E+03    0.19654E+03   -0.11230E+02   784   0.112E+01    0.552E+01
RMM:  10    -0.412282630011E+03    0.29240E+02   -0.44473E+01   785   0.796E+00    0.476E+01
RMM:  11    -0.393472789558E+03    0.18810E+02   -0.31608E+01   786   0.674E+00    0.401E+01
RMM:  12    -0.383435074760E+03    0.10038E+02   -0.70345E+00   787   0.345E+00    0.239E+01
RMM:  13    -0.381852153605E+03    0.15829E+01   -0.30686E+00   788   0.215E+00    0.197E+01
RMM:  14    -0.379485783470E+03    0.23664E+01   -0.13077E+00   790   0.141E+00    0.111E+01
RMM:  15    -0.378964698367E+03    0.52109E+00   -0.44389E-01   789   0.807E-01    0.851E+00
RMM:  16    -0.378789239718E+03    0.17546E+00   -0.15719E-01   789   0.489E-01    0.683E+00
RMM:  17    -0.378675646341E+03    0.11359E+00   -0.10053E-01   789   0.400E-01    0.610E+00
RMM:  18    -0.378648576051E+03    0.27070E-01   -0.30195E-01   788   0.701E-01    0.683E+00
RMM:  19    -0.378495347345E+03    0.15323E+00   -0.34181E-01   789   0.799E-01    0.384E+00
RMM:  20    -0.378428174275E+03    0.67173E-01   -0.10132E-01   788   0.408E-01    0.227E+00
RMM:  21    -0.378417549233E+03    0.10625E-01   -0.34147E-02   789   0.234E-01    0.213E+00
RMM:  22    -0.378405374449E+03    0.12175E-01   -0.14285E-02   788   0.151E-01    0.168E+00
RMM:  23    -0.378396121191E+03    0.92533E-02   -0.97335E-03   788   0.125E-01    0.107E+00
RMM:  24    -0.378390823683E+03    0.52975E-02   -0.75394E-03   787   0.110E-01    0.902E-01
RMM:  25    -0.378389384537E+03    0.14391E-02   -0.50136E-03   790   0.896E-02    0.680E-01
RMM:  26    -0.378388340858E+03    0.10437E-02   -0.25077E-03   788   0.640E-02    0.425E-01
RMM:  27    -0.378388556004E+03   -0.21515E-03   -0.76307E-04   788   0.355E-02    0.392E-01
RMM:  28    -0.378388151624E+03    0.40438E-03   -0.33206E-04   789   0.236E-02    0.276E-01
RMM:  29    -0.378387943623E+03    0.20800E-03   -0.38592E-04   788   0.245E-02    0.168E-01
RMM:  30    -0.378388036334E+03   -0.92711E-04   -0.25004E-04   789   0.191E-02    0.105E-01
RMM:  31    -0.378388253824E+03   -0.21749E-03   -0.11621E-04   789   0.130E-02    0.653E-02
RMM:  32    -0.378388391448E+03   -0.13762E-03   -0.39933E-05   792   0.755E-03    0.421E-02
RMM:  33    -0.378388618477E+03   -0.22703E-03   -0.38419E-05   784   0.723E-03    0.403E-02
RMM:  34    -0.378388808120E+03   -0.18964E-03   -0.25829E-05   782   0.585E-03    0.337E-02
RMM:  35    -0.378388898164E+03   -0.90044E-04   -0.10086E-05   727   0.360E-03    0.273E-02
RMM:  36    -0.378389002322E+03   -0.10416E-03   -0.68751E-06   602   0.286E-03    0.211E-02
RMM:  37    -0.378389106558E+03   -0.10424E-03   -0.56820E-06   570   0.249E-03    0.165E-02
RMM:  38    -0.378389210568E+03   -0.10401E-03   -0.58095E-06   574   0.236E-03    0.145E-02
RMM:  39    -0.378389341768E+03   -0.13120E-03   -0.98155E-06   629   0.287E-03    0.152E-02
RMM:  40    -0.378389435277E+03   -0.93509E-04   -0.83700E-06   601   0.241E-03    0.645E-03
RMM:  41    -0.378389474553E+03   -0.39275E-04   -0.25644E-06   497   0.138E-03    0.734E-03
RMM:  42    -0.378389521649E+03   -0.47096E-04   -0.29204E-06   522   0.136E-03    0.543E-03
RMM:  43    -0.378389536605E+03   -0.14956E-04   -0.86136E-07   400   0.792E-04    0.375E-03
RMM:  44    -0.378389550944E+03   -0.14339E-04   -0.56354E-07   373   0.670E-04    0.381E-03
RMM:  45    -0.378389559270E+03   -0.83260E-05   -0.24620E-07   250   0.503E-04    0.495E-03
RMM:  46    -0.378389565225E+03   -0.59541E-05   -0.17621E-07   261   0.455E-04    0.322E-03
RMM:  47    -0.378389572964E+03   -0.77390E-05   -0.19911E-07   275   0.464E-04    0.317E-03
RMM:  48    -0.378389579471E+03   -0.65074E-05   -0.18173E-07   278   0.456E-04    0.449E-03
RMM:  49    -0.378389582160E+03   -0.26892E-05   -0.61873E-08   144   0.345E-04    0.212E-03
RMM:  50    -0.378389585464E+03   -0.33039E-05   -0.67401E-08   162   0.360E-04    0.578E-04
RMM:  51    -0.378389587149E+03   -0.16845E-05   -0.10043E-07   225   0.405E-04    0.576E-03
RMM:  52    -0.378389588641E+03   -0.14925E-05   -0.10973E-07   241   0.412E-04    0.947E-03
RMM:  53    -0.378389589292E+03   -0.65129E-06   -0.69216E-08   184   0.371E-04
   1 F= -.41438257E+03 E0= -.41390017E+03  d E =-.964791E+00
       N       E                     dE             d eps       ncg     rms          rms(c)
DAV:   1    -0.378385104833E+03    0.44838E-02   -0.12315E+00   800   0.183E+00    0.266E-01
RMM:   2    -0.378387106731E+03   -0.20019E-02   -0.18727E-02   790   0.189E-01    0.355E-01
RMM:   3    -0.378390774909E+03   -0.36682E-02   -0.17410E-03   793   0.498E-02    0.848E-01
RMM:   4    -0.378387212675E+03    0.35622E-02   -0.12732E-03   790   0.393E-02    0.377E-01
RMM:   5    -0.378386688878E+03    0.52380E-03   -0.68263E-04   788   0.319E-02    0.282E-01
RMM:   6    -0.378386500390E+03    0.18849E-03   -0.39910E-04   790   0.260E-02    0.197E-01
RMM:   7    -0.378386401719E+03    0.98671E-04   -0.18033E-04   788   0.172E-02    0.124E-01
RMM:   8    -0.378386382237E+03    0.19482E-04   -0.94375E-05   788   0.125E-02    0.881E-02
RMM:   9    -0.378386354416E+03    0.27822E-04   -0.42418E-05   788   0.853E-03    0.463E-02
RMM:  10    -0.378386339696E+03    0.14719E-04   -0.13567E-05   781   0.488E-03    0.132E-02
RMM:  11    -0.378386339972E+03   -0.27601E-06   -0.25471E-06   457   0.220E-03
   2 F= -.41438000E+03 E0= -.41389755E+03  d E =-.964889E+00
       N       E                     dE             d eps       ncg     rms          rms(c)
DAV:   1    -0.378387983086E+03   -0.16434E-02   -0.49223E+00   792   0.366E+00    0.538E-01
RMM:   2    -0.378395710939E+03   -0.77279E-02   -0.76207E-02   790   0.378E-01    0.603E-01
RMM:   3    -0.378405684346E+03   -0.99734E-02   -0.72552E-03   793   0.101E-01    0.137E+00
RMM:   4    -0.378394666376E+03    0.11018E-01   -0.29797E-03   792   0.609E-02    0.702E-01
RMM:   5    -0.378394106732E+03    0.55964E-03   -0.25117E-03   788   0.616E-02    0.581E-01
RMM:   6    -0.378393585402E+03    0.52133E-03   -0.16320E-03   788   0.520E-02    0.409E-01
RMM:   7    -0.378393057089E+03    0.52831E-03   -0.79974E-04   788   0.362E-02    0.249E-01
RMM:   8    -0.378393015454E+03    0.41635E-04   -0.39421E-04   790   0.255E-02    0.198E-01
RMM:   9    -0.378392843656E+03    0.17180E-03   -0.18321E-04   788   0.177E-02    0.878E-02
RMM:  10    -0.378392794039E+03    0.49617E-04   -0.57399E-05   788   0.101E-02    0.324E-02
RMM:  11    -0.378392792037E+03    0.20026E-05   -0.10281E-05   780   0.414E-03    0.301E-02
RMM:  12    -0.378392792553E+03   -0.51624E-06   -0.54997E-06   649   0.302E-03
   3 F= -.41438506E+03 E0= -.41390269E+03  d E =-.964746E+00
       N       E                     dE             d eps       ncg     rms          rms(c)
DAV:   1    -0.378384681155E+03    0.81109E-02   -0.22708E+00   792   0.249E+00    0.465E-01
RMM:   2    -0.378392025977E+03   -0.73448E-02   -0.49899E-02   789   0.282E-01    0.776E-01
RMM:   3    -0.378400573356E+03   -0.85474E-02   -0.66419E-03   792   0.952E-02    0.145E+00
RMM:   4    -0.378387029889E+03    0.13543E-01   -0.23413E-03   791   0.555E-02    0.450E-01
RMM:   5    -0.378387076519E+03   -0.46631E-04   -0.16349E-03   788   0.504E-02    0.461E-01
RMM:   6    -0.378387508067E+03   -0.43155E-03   -0.12996E-03   788   0.456E-02    0.473E-01
RMM:   7    -0.378386722103E+03    0.78596E-03   -0.86515E-04   788   0.377E-02    0.249E-01
RMM:   8    -0.378386508818E+03    0.21328E-03   -0.35496E-04   789   0.240E-02    0.152E-01
RMM:   9    -0.378386418073E+03    0.90745E-04   -0.15841E-04   788   0.160E-02    0.846E-02
RMM:  10    -0.378386373120E+03    0.44954E-04   -0.45891E-05   787   0.906E-03    0.314E-02
RMM:  11    -0.378386370395E+03    0.27244E-05   -0.90599E-06   776   0.393E-03    0.263E-02
RMM:  12    -0.378386372202E+03   -0.18062E-05   -0.49818E-06   621   0.286E-03    0.301E-02
RMM:  13    -0.378386371051E+03    0.11504E-05   -0.34671E-06   515   0.258E-03    0.184E-02
RMM:  14    -0.378386369510E+03    0.15410E-05   -0.13666E-06   423   0.173E-03    0.623E-03
RMM:  15    -0.378386369813E+03   -0.30307E-06   -0.37170E-07   408   0.877E-04
   4 F= -.41438051E+03 E0= -.41389810E+03  d E =-.964818E+00
       N       E                     dE             d eps       ncg     rms          rms(c)
DAV:   1    -0.378389366625E+03   -0.29971E-02   -0.46696E+00   784   0.357E+00    0.618E-01
RMM:   2    -0.378400160201E+03   -0.10794E-01   -0.92219E-02   789   0.394E-01    0.918E-01
RMM:   3    -0.378396031522E+03    0.41287E-02   -0.77774E-03   790   0.112E-01    0.775E-01
RMM:   4    -0.378403096719E+03   -0.70652E-02   -0.38386E-03   793   0.697E-02    0.129E+00
RMM:   5    -0.378396873102E+03    0.62236E-02   -0.35021E-03   788   0.671E-02    0.889E-01
RMM:   6    -0.378395463704E+03    0.14094E-02   -0.26789E-03   788   0.641E-02    0.621E-01
RMM:   7    -0.378393577759E+03    0.18859E-02   -0.16079E-03   788   0.512E-02    0.274E-01
RMM:   8    -0.378393361077E+03    0.21668E-03   -0.62108E-04   788   0.316E-02    0.193E-01
RMM:   9    -0.378393220310E+03    0.14077E-03   -0.24624E-04   788   0.200E-02    0.115E-01
RMM:  10    -0.378393142125E+03    0.78185E-04   -0.75396E-05   788   0.115E-02    0.468E-02
RMM:  11    -0.378393135419E+03    0.67063E-05   -0.16156E-05   784   0.521E-03    0.335E-02
RMM:  12    -0.378393134505E+03    0.91412E-06   -0.99066E-06   776   0.403E-03
   5 F= -.41438486E+03 E0= -.41390246E+03  d E =-.964808E+00
       N       E                     dE             d eps       ncg     rms          rms(c)
DAV:   1    -0.378380910687E+03    0.12225E-01   -0.23395E+00   784   0.254E+00    0.433E-01
RMM:   2    -0.378389881804E+03   -0.89711E-02   -0.40846E-02   789   0.266E-01    0.977E-01
RMM:   3    -0.378386075881E+03    0.38059E-02   -0.20727E-03   791   0.546E-02    0.693E-01
RMM:   4    -0.378386246712E+03   -0.17083E-03   -0.23602E-03   788   0.578E-02    0.706E-01
RMM:   5    -0.378385895646E+03    0.35107E-03   -0.25198E-03   787   0.621E-02    0.642E-01
RMM:   6    -0.378384739443E+03    0.11562E-02   -0.13032E-03   790   0.451E-02    0.438E-01
RMM:   7    -0.378383893085E+03    0.84636E-03   -0.57346E-04   788   0.302E-02    0.249E-01
RMM:   8    -0.378383728892E+03    0.16419E-03   -0.33170E-04   788   0.231E-02    0.155E-01
RMM:   9    -0.378383676901E+03    0.51992E-04   -0.16185E-04   788   0.164E-02    0.899E-02
RMM:  10    -0.378383614743E+03    0.62158E-04   -0.48697E-05   787   0.888E-03    0.320E-02
RMM:  11    -0.378383611474E+03    0.32687E-05   -0.80938E-06   758   0.371E-03    0.208E-02
RMM:  12    -0.378383614810E+03   -0.33359E-05   -0.37138E-06   543   0.251E-03    0.251E-02
RMM:  13    -0.378383618607E+03   -0.37964E-05   -0.34504E-06   523   0.254E-03    0.223E-02
RMM:  14    -0.378383618615E+03   -0.82655E-08   -0.17849E-06   436   0.197E-03
   6 F= -.41437620E+03 E0= -.41389356E+03  d E =-.965288E+00
       N       E                     dE             d eps       ncg     rms          rms(c)
DAV:   1    -0.378386288539E+03   -0.26699E-02   -0.48097E+00   784   0.364E+00    0.854E-01
RMM:   2    -0.378414100960E+03   -0.27812E-01   -0.99683E-02   790   0.410E-01    0.209E+00
RMM:   3    -0.378396874720E+03    0.17226E-01   -0.45055E-03   799   0.811E-02    0.122E+00
RMM:   4    -0.378405971693E+03   -0.90970E-02   -0.41493E-03   792   0.759E-02    0.165E+00
RMM:   5    -0.378410593869E+03   -0.46222E-02   -0.99544E-03   788   0.121E-01    0.192E+00
RMM:   6    -0.378399157835E+03    0.11436E-01   -0.75822E-03   788   0.108E-01    0.113E+00
RMM:   7    -0.378393405076E+03    0.57528E-02   -0.39367E-03   789   0.774E-02    0.583E-01
RMM:   8    -0.378392312624E+03    0.10925E-02   -0.17772E-03   788   0.531E-02    0.304E-01
RMM:   9    -0.378392135478E+03    0.17715E-03   -0.72677E-04   788   0.343E-02    0.211E-01
RMM:  10    -0.378391851611E+03    0.28387E-03   -0.20869E-04   788   0.185E-02    0.638E-02
RMM:  11    -0.378391833998E+03    0.17613E-04   -0.34279E-05   787   0.742E-03    0.484E-02
RMM:  12    -0.378391834910E+03   -0.91181E-06   -0.14414E-05   782   0.476E-03    0.463E-02
RMM:  13    -0.378391837110E+03   -0.22001E-05   -0.12965E-05   780   0.463E-03    0.365E-02
RMM:  14    -0.378391834485E+03    0.26249E-05   -0.89580E-06   771   0.394E-03    0.231E-02
RMM:  15    -0.378391834423E+03    0.62617E-07   -0.30437E-06   499   0.238E-03
   7 F= -.41438521E+03 E0= -.41390303E+03  d E =-.964358E+00
       N       E                     dE             d eps       ncg     rms          rms(c)
DAV:   1    -0.378386528976E+03    0.53055E-02   -0.23611E+00   784   0.261E+00    0.579E-01
RMM:   2    -0.378396969181E+03   -0.10440E-01   -0.74963E-02   790   0.331E-01    0.101E+00
RMM:   3    -0.378402954542E+03   -0.59854E-02   -0.52250E-03   791   0.846E-02    0.132E+00
RMM:   4    -0.378398487758E+03    0.44668E-02   -0.52430E-03   792   0.817E-02    0.106E+00
RMM:   5    -0.378396653208E+03    0.18346E-02   -0.41630E-03   789   0.791E-02    0.107E+00
RMM:   6    -0.378392982348E+03    0.36709E-02   -0.24586E-03   789   0.630E-02    0.573E-01
RMM:   7    -0.378391651221E+03    0.13311E-02   -0.11482E-03   788   0.429E-02    0.269E-01
RMM:   8    -0.378391710466E+03   -0.59245E-04   -0.71900E-04   789   0.336E-02    0.253E-01
RMM:   9    -0.378391363427E+03    0.34704E-03   -0.31133E-04   788   0.220E-02    0.113E-01
RMM:  10    -0.378391285257E+03    0.78171E-04   -0.77593E-05   788   0.112E-02    0.415E-02
RMM:  11    -0.378391278967E+03    0.62892E-05   -0.14096E-05   783   0.472E-03    0.255E-02
RMM:  12    -0.378391279946E+03   -0.97876E-06   -0.55943E-06   650   0.306E-03
   8 F= -.41438383E+03 E0= -.41390133E+03  d E =-.965012E+00
       N       E                     dE             d eps       ncg     rms          rms(c)
DAV:   1    -0.378381425097E+03    0.98539E-02   -0.47704E+00   784   0.350E+00    0.589E-01
RMM:   2    -0.378394056324E+03   -0.12631E-01   -0.96196E-02   790   0.399E-01    0.954E-01
RMM:   3    -0.378399928912E+03   -0.58726E-02   -0.71617E-03   791   0.102E-01    0.138E+00
RMM:   4    -0.378391793799E+03    0.81351E-02   -0.39878E-03   793   0.712E-02    0.873E-01
RMM:   5    -0.378390616837E+03    0.11770E-02   -0.37750E-03   789   0.750E-02    0.786E-01
RMM:   6    -0.378388964931E+03    0.16519E-02   -0.25751E-03   789   0.640E-02    0.554E-01
RMM:   7    -0.378387918336E+03    0.10466E-02   -0.12176E-03   788   0.443E-02    0.344E-01
RMM:   8    -0.378387641220E+03    0.27712E-03   -0.64532E-04   789   0.318E-02    0.245E-01
RMM:   9    -0.378387453012E+03    0.18821E-03   -0.34406E-04   788   0.237E-02    0.138E-01
RMM:  10    -0.378387301806E+03    0.15121E-03   -0.11728E-04   788   0.139E-02    0.378E-02
RMM:  11    -0.378387296213E+03    0.55928E-05   -0.17074E-05   786   0.526E-03    0.262E-02
RMM:  12    -0.378387300032E+03   -0.38191E-05   -0.68630E-06   722   0.329E-03    0.329E-02
RMM:  13    -0.378387297404E+03    0.26277E-05   -0.39481E-06   562   0.269E-03    0.188E-02
RMM:  14    -0.378387296740E+03    0.66464E-06   -0.15478E-06   432   0.178E-03
   9 F= -.41438068E+03 E0= -.41389838E+03  d E =-.964619E+00
       N       E                     dE             d eps       ncg     rms          rms(c)
DAV:   1    -0.378390794860E+03   -0.34975E-02   -0.23083E+00   784   0.245E+00    0.390E-01
RMM:   2    -0.378399351340E+03   -0.85565E-02   -0.50969E-02   789   0.277E-01    0.789E-01
RMM:   3    -0.378410178543E+03   -0.10827E-01   -0.59976E-03   791   0.874E-02    0.156E+00
RMM:   4    -0.378394046980E+03    0.16132E-01   -0.31161E-03   791   0.650E-02    0.406E-01
RMM:   5    -0.378393760947E+03    0.28603E-03   -0.13189E-03   788   0.451E-02    0.346E-01
RMM:   6    -0.378393602476E+03    0.15847E-03   -0.72153E-04   788   0.340E-02    0.295E-01
RMM:   7    -0.378393291680E+03    0.31080E-03   -0.39527E-04   788   0.260E-02    0.182E-01
RMM:   8    -0.378393234006E+03    0.57675E-04   -0.19680E-04   790   0.179E-02    0.145E-01
RMM:   9    -0.378393187053E+03    0.46953E-04   -0.11975E-04   788   0.140E-02    0.874E-02
RMM:  10    -0.378393136489E+03    0.50564E-04   -0.45604E-05   787   0.880E-03    0.331E-02
RMM:  11    -0.378393128119E+03    0.83694E-05   -0.67706E-06   737   0.345E-03    0.150E-02
RMM:  12    -0.378393129792E+03   -0.16728E-05   -0.27654E-06   480   0.221E-03    0.221E-02
RMM:  13    -0.378393128589E+03    0.12034E-05   -0.14999E-06   431   0.181E-03    0.127E-02
RMM:  14    -0.378393128452E+03    0.13671E-06   -0.63586E-07   410   0.118E-03
  10 F= -.41438535E+03 E0= -.41390291E+03  d E =-.964882E+00
       N       E                     dE             d eps       ncg     rms          rms(c)
DAV:   1    -0.378379152584E+03    0.13976E-01   -0.46301E+00   784   0.346E+00    0.590E-01
RMM:   2    -0.378398714791E+03   -0.19562E-01   -0.12039E-01   788   0.408E-01    0.119E+00
RMM:   3    -0.378417504954E+03   -0.18790E-01   -0.12104E-02   788   0.125E-01    0.215E+00
RMM:   4    -0.378389145775E+03    0.28359E-01   -0.65591E-03   789   0.949E-02    0.718E-01
RMM:   5    -0.378387774087E+03    0.13717E-02   -0.33863E-03   789   0.720E-02    0.545E-01
RMM:   6    -0.378387180961E+03    0.59313E-03   -0.17846E-03   789   0.536E-02    0.448E-01
RMM:   7    -0.378386508253E+03    0.67271E-03   -0.86814E-04   788   0.382E-02    0.286E-01
RMM:   8    -0.378386393694E+03    0.11456E-03   -0.46710E-04   789   0.274E-02    0.232E-01
RMM:   9    -0.378386291666E+03    0.10203E-03   -0.31733E-04   788   0.230E-02    0.144E-01
RMM:  10    -0.378386136437E+03    0.15523E-03   -0.12938E-04   788   0.148E-02    0.464E-02
RMM:  11    -0.378386123260E+03    0.13177E-04   -0.20203E-05   785   0.583E-03    0.235E-02
RMM:  12    -0.378386127090E+03   -0.38302E-05   -0.67824E-06   722   0.329E-03    0.319E-02
RMM:  13    -0.378386126380E+03    0.71027E-06   -0.39595E-06   563   0.266E-03
  11 F= -.41437977E+03 E0= -.41389737E+03  d E =-.964794E+00
       N       E                     dE             d eps       ncg     rms          rms(c)
DAV:   1    -0.378386867393E+03   -0.74030E-03   -0.23206E+00   784   0.245E+00    0.495E-01
RMM:   2    -0.378394209633E+03   -0.73422E-02   -0.57095E-02   790   0.291E-01    0.738E-01
RMM:   3    -0.378391284815E+03    0.29248E-02   -0.54562E-03   792   0.919E-02    0.584E-01
RMM:   4    -0.378398848004E+03   -0.75632E-02   -0.31545E-03   792   0.641E-02    0.118E+00
RMM:   5    -0.378393064120E+03    0.57839E-02   -0.28584E-03   787   0.592E-02    0.808E-01
RMM:   6    -0.378390660462E+03    0.24037E-02   -0.15705E-03   790   0.492E-02    0.471E-01
RMM:   7    -0.378389861187E+03    0.79928E-03   -0.88416E-04   788   0.380E-02    0.249E-01
RMM:   8    -0.378389635776E+03    0.22541E-03   -0.38541E-04   788   0.251E-02    0.149E-01
RMM:   9    -0.378389585773E+03    0.50004E-04   -0.17145E-04   788   0.166E-02    0.110E-01
RMM:  10    -0.378389516941E+03    0.68832E-04   -0.59573E-05   788   0.101E-02    0.458E-02
RMM:  11    -0.378389506783E+03    0.10158E-04   -0.11578E-05   782   0.444E-03    0.280E-02
RMM:  12    -0.378389505007E+03    0.17753E-05   -0.37604E-06   545   0.250E-03    0.229E-02
RMM:  13    -0.378389504916E+03    0.91277E-07   -0.30300E-06   491   0.237E-03
  12 F= -.41438172E+03 E0= -.41389871E+03  d E =-.966021E+00
       N       E                     dE             d eps       ncg     rms          rms(c)
DAV:   1    -0.378380525537E+03    0.89795E-02   -0.48286E+00   792   0.357E+00    0.724E-01
RMM:   2    -0.378393276847E+03   -0.12751E-01   -0.10168E-01   789   0.397E-01    0.995E-01
RMM:   3    -0.378411257144E+03   -0.17980E-01   -0.91028E-03   791   0.112E-01    0.185E+00
RMM:   4    -0.378402389651E+03    0.88675E-02   -0.10581E-02   789   0.114E-01    0.152E+00
RMM:   5    -0.378393795750E+03    0.85939E-02   -0.61005E-03   790   0.971E-02    0.114E+00
RMM:   6    -0.378389404239E+03    0.43915E-02   -0.35698E-03   788   0.756E-02    0.575E-01
RMM:   7    -0.378388091960E+03    0.13123E-02   -0.15856E-03   789   0.513E-02    0.310E-01
RMM:   8    -0.378387847496E+03    0.24446E-03   -0.73737E-04   789   0.344E-02    0.230E-01
RMM:   9    -0.378387651600E+03    0.19590E-03   -0.29926E-04   788   0.223E-02    0.138E-01
RMM:  10    -0.378387544628E+03    0.10697E-03   -0.92795E-05   789   0.124E-02    0.584E-02
RMM:  11    -0.378387532383E+03    0.12245E-04   -0.22571E-05   788   0.608E-03    0.399E-02
RMM:  12    -0.378387531226E+03    0.11576E-05   -0.90728E-06   773   0.381E-03    0.362E-02
RMM:  13    -0.378387526804E+03    0.44213E-05   -0.54142E-06   676   0.303E-03    0.185E-02
RMM:  14    -0.378387526012E+03    0.79239E-06   -0.22179E-06   449   0.209E-03
  13 F= -.41438128E+03 E0= -.41389949E+03  d E =-.963596E+00
