       N       E                     dE             d eps       ncg     rms          rms(c)
DAV:   1     0.478825683668E+03    0.47883E+03   -0.31070E+04  9612   0.115E+03
DAV:   2    -0.227387770632E+02   -0.50156E+03   -0.47935E+03 12768   0.258E+02
DAV:   3    -0.487745953717E+02   -0.26036E+02   -0.24953E+02 12072   0.563E+01
DAV:   4    -0.494722482212E+02   -0.69765E+00   -0.69125E+00 11988   0.990E+00
DAV:   5    -0.494966077820E+02   -0.24360E-01   -0.24273E-01 13224   0.159E+00    0.293E+01
RMM:   6    -0.475508132962E+02    0.19458E+01   -0.80257E+00  9665   0.130E+01    0.204E+01
RMM:   7    -0.593793205707E+02   -0.11829E+02   -0.20941E+01  9703   0.148E+01    0.289E+01
RMM:   8    -0.496601710356E+02    0.97191E+01   -0.67516E+00  9638   0.910E+00    0.151E+01
RMM:   9    -0.527883045853E+02   -0.31281E+01   -0.37607E+00  9636   0.579E+00    0.192E+01
RMM:  10    -0.492470768796E+02    0.35412E+01   -0.45548E+00  9634   0.667E+00    0.142E+01
RMM:  11    -0.468530483916E+02    0.23940E+01   -0.56793E-01  9601   0.284E+00    0.611E+00
RMM:  12    -0.465498432187E+02    0.30321E+00   -0.43374E-01  9671   0.214E+00    0.358E+00
RMM:  13    -0.464832990822E+02    0.66544E-01   -0.14830E-01  9677   0.125E+00    0.285E+00
RMM:  14    -0.464428798680E+02    0.40419E-01   -0.16030E-02 10143   0.379E-01    0.187E+00
RMM:  15    -0.464113411550E+02    0.31539E-01   -0.16490E-02  9688   0.443E-01    0.655E-01
RMM:  16    -0.464097212138E+02    0.16199E-02   -0.27661E-03  9817   0.178E-01    0.491E-01
RMM:  17    -0.464102628367E+02   -0.54162E-03   -0.16035E-03  9700   0.136E-01    0.570E-01
RMM:  18    -0.464082089767E+02    0.20539E-02   -0.43325E-04  9791   0.714E-02    0.380E-01
RMM:  19    -0.464069678798E+02    0.12411E-02   -0.23253E-04  9746   0.498E-02    0.203E-01
RMM:  20    -0.464065499530E+02    0.41793E-03   -0.17379E-04  9792   0.383E-02    0.940E-02
RMM:  21    -0.464064877284E+02    0.62225E-04   -0.84266E-05  9924   0.270E-02    0.543E-02
RMM:  22    -0.464064699231E+02    0.17805E-04   -0.33129E-05  9838   0.171E-02    0.290E-02
RMM:  23    -0.464064816375E+02   -0.11714E-04   -0.54275E-06  7261   0.680E-03    0.247E-02
RMM:  24    -0.464064858625E+02   -0.42250E-05   -0.26239E-06  6118   0.481E-03    0.510E-03
RMM:  25    -0.464065232691E+02   -0.37407E-04   -0.70761E-06  7833   0.710E-03    0.383E-02
RMM:  26    -0.464065123300E+02    0.10939E-04   -0.71062E-07  5257   0.318E-03    0.152E-02
RMM:  27    -0.464065241825E+02   -0.11853E-04   -0.33160E-06  6332   0.490E-03    0.148E-02
RMM:  28    -0.464065360159E+02   -0.11833E-04   -0.17917E-06  5583   0.357E-03    0.967E-03
RMM:  29    -0.464065396084E+02   -0.35925E-05   -0.49034E-07  4688   0.193E-03    0.242E-03
RMM:  30    -0.464065426769E+02   -0.30685E-05   -0.33711E-07  3211   0.146E-03    0.137E-03
RMM:  31    -0.464065438197E+02   -0.11428E-05   -0.21262E-07  3860   0.146E-03    0.169E-03
RMM:  32    -0.464065443604E+02   -0.54072E-06   -0.35800E-08  1161   0.824E-04
   1 F= -.46406544E+02 E0= -.46403425E+02  d E =-.464065E+02
       N       E                     dE             d eps       ncg     rms          rms(c)
DAV:   1    -0.464070765740E+02   -0.53275E-03   -0.33441E-02 10068   0.676E-01    0.352E-02
RMM:   2    -0.464073809858E+02   -0.30441E-03   -0.38667E-04  9686   0.989E-02    0.177E-01
RMM:   3    -0.464071855567E+02    0.19543E-03   -0.24532E-05  9898   0.190E-02    0.104E-01
RMM:   4    -0.464071631084E+02    0.22448E-04   -0.24848E-05  9657   0.172E-02    0.873E-02
RMM:   5    -0.464071116389E+02    0.51470E-04   -0.24090E-05  9617   0.164E-02    0.359E-02
RMM:   6    -0.464071086821E+02    0.29568E-05   -0.77236E-06  8539   0.102E-02    0.162E-02
RMM:   7    -0.464071065551E+02    0.21270E-05   -0.23159E-06  5658   0.583E-03    0.555E-03
RMM:   8    -0.464071063540E+02    0.20107E-06   -0.13878E-06  5067   0.424E-03
   2 F= -.46407106E+02 E0= -.46403992E+02  d E =-.561994E-03
       N       E                     dE             d eps       ncg     rms          rms(c)
DAV:   1    -0.464076734750E+02   -0.56692E-03   -0.10233E+00  9600   0.374E+00    0.195E-01
RMM:   2    -0.464202126970E+02   -0.12539E-01   -0.12569E-02  9680   0.558E-01    0.114E+00
RMM:   3    -0.464110379358E+02    0.91748E-02   -0.94154E-04  9820   0.114E-01    0.545E-01
RMM:   4    -0.464101574585E+02    0.88048E-03   -0.74225E-04  9677   0.941E-02    0.444E-01
RMM:   5    -0.464089223645E+02    0.12351E-02   -0.70950E-04  9673   0.896E-02    0.218E-01
RMM:   6    -0.464087156094E+02    0.20676E-03   -0.25048E-04  9684   0.579E-02    0.101E-01
RMM:   7    -0.464086020262E+02    0.11358E-03   -0.80989E-05  9687   0.322E-02    0.213E-02
RMM:   8    -0.464085961761E+02    0.58501E-05   -0.45827E-05  9676   0.226E-02    0.906E-03
RMM:   9    -0.464085975507E+02   -0.13746E-05   -0.58825E-06  8130   0.841E-03    0.459E-03
RMM:  10    -0.464085978945E+02   -0.34380E-06   -0.66500E-07  5148   0.363E-03
   3 F= -.46408598E+02 E0= -.46405508E+02  d E =-.149154E-02
       N       E                     dE             d eps       ncg     rms          rms(c)
DAV:   1    -0.464086100827E+02   -0.12532E-04   -0.10203E-03 10728   0.118E-01    0.440E-03
RMM:   2    -0.464086110377E+02   -0.95498E-06   -0.89592E-06  8334   0.160E-02
   4 F= -.46408611E+02 E0= -.46405523E+02  d E =-.131432E-04
       N       E                     dE             d eps       ncg     rms          rms(c)
DAV:   1    -0.464086452988E+02   -0.35216E-04   -0.19472E-02  9696   0.518E-01    0.213E-02
RMM:   2    -0.464087416401E+02   -0.96341E-04   -0.19128E-04  9657   0.745E-02    0.932E-02
RMM:   3    -0.464086620937E+02    0.79546E-04   -0.19746E-05  9566   0.169E-02    0.184E-02
RMM:   4    -0.464086638101E+02   -0.17164E-05   -0.54317E-06  8265   0.955E-03    0.155E-02
RMM:   5    -0.464086644355E+02   -0.62536E-06   -0.69155E-06  8133   0.930E-03
   5 F= -.46408664E+02 E0= -.46405582E+02  d E =-.533978E-04
       N       E                     dE             d eps       ncg     rms          rms(c)
DAV:   1    -0.464086411850E+02    0.22625E-04   -0.43642E-03  9684   0.245E-01    0.176E-02
RMM:   2    -0.464088655267E+02   -0.22434E-03   -0.99437E-05  9644   0.426E-02    0.147E-01
RMM:   3    -0.464086474031E+02    0.21812E-03   -0.37213E-05  9522   0.190E-02    0.288E-02
RMM:   4    -0.464086472566E+02    0.14651E-06   -0.54035E-06  7394   0.846E-03
   6 F= -.46408647E+02 E0= -.46405556E+02  d E =0.171789E-04
       N       E                     dE             d eps       ncg     rms          rms(c)
DAV:   1    -0.464086531030E+02   -0.56999E-05   -0.65982E-04  9792   0.948E-02    0.660E-03
RMM:   2    -0.464086914523E+02   -0.38349E-04   -0.16080E-05  9424   0.168E-02    0.598E-02
RMM:   3    -0.464086546359E+02    0.36816E-04   -0.59698E-06  7725   0.801E-03    0.136E-02
RMM:   4    -0.464086538040E+02    0.83191E-06   -0.12592E-06  5233   0.449E-03
   7 F= -.46408654E+02 E0= -.46405566E+02  d E =-.654740E-05
       N       E                     dE             d eps       ncg     rms          rms(c)
DAV:   1    -0.464086606673E+02   -0.60314E-05   -0.30477E-04  9720   0.639E-02    0.439E-03
RMM:   2    -0.464086710207E+02   -0.10353E-04   -0.43222E-06  6982   0.101E-02    0.310E-02
RMM:   3    -0.464086611310E+02    0.98896E-05   -0.18556E-06  5454   0.505E-03    0.829E-03
RMM:   4    -0.464086613600E+02   -0.22895E-06   -0.37249E-07  5009   0.268E-03
   8 F= -.46408661E+02 E0= -.46405572E+02  d E =-.755598E-05
       N       E                     dE             d eps       ncg     rms          rms(c)
DAV:   1    -0.464086932729E+02   -0.32142E-04   -0.15040E-02  9600   0.449E-01    0.185E-02
RMM:   2    -0.464087372359E+02   -0.43963E-04   -0.17509E-04  9622   0.679E-02    0.549E-02
RMM:   3    -0.464087099880E+02    0.27248E-04   -0.13905E-05  9348   0.148E-02    0.153E-02
RMM:   4    -0.464087117289E+02   -0.17408E-05   -0.66445E-06  8159   0.910E-03    0.236E-02
RMM:   5    -0.464087080947E+02    0.36341E-05   -0.19549E-06  5101   0.597E-03    0.112E-02
RMM:   6    -0.464087111030E+02   -0.30083E-05   -0.32378E-06  6100   0.710E-03    0.163E-02
RMM:   7    -0.464087085953E+02    0.25077E-05   -0.13597E-06  5002   0.500E-03    0.712E-03
RMM:   8    -0.464087081783E+02    0.41703E-06   -0.31657E-07  4960   0.234E-03
   9 F= -.46408708E+02 E0= -.46405619E+02  d E =-.468183E-04
       N       E                     dE             d eps       ncg     rms          rms(c)
DAV:   1    -0.464077390636E+02    0.96953E-03   -0.12013E+00  9600   0.402E+00    0.165E-01
RMM:   2    -0.464147754507E+02   -0.70364E-02   -0.15186E-02  9623   0.618E-01    0.778E-01
RMM:   3    -0.464090561598E+02    0.57193E-02   -0.13625E-03  9783   0.143E-01    0.106E-01
RMM:   4    -0.464091760562E+02   -0.11990E-03   -0.53964E-04  9632   0.799E-02    0.204E-01
RMM:   5    -0.464089175835E+02    0.25847E-03   -0.15238E-04  9674   0.478E-02    0.107E-01
RMM:   6    -0.464091095736E+02   -0.19199E-03   -0.24536E-04  9667   0.572E-02    0.148E-01
RMM:   7    -0.464088936931E+02    0.21588E-03   -0.94934E-05  9680   0.349E-02    0.612E-02
RMM:   8    -0.464088592221E+02    0.34471E-04   -0.17529E-05  9732   0.139E-02    0.883E-03
RMM:   9    -0.464088603147E+02   -0.10926E-05   -0.28816E-06  5854   0.647E-03    0.426E-03
RMM:  10    -0.464088604718E+02   -0.15712E-06   -0.10825E-06  5195   0.444E-03
  10 F= -.46408860E+02 E0= -.46405767E+02  d E =-.152293E-03
