       N       E                     dE             d eps       ncg     rms          rms(c)
DAV:   1     0.427709893774E+04    0.42771E+04   -0.26716E+05  3960   0.126E+03
DAV:   2    -0.670860915890E+02   -0.43442E+04   -0.39969E+04  4668   0.276E+02
DAV:   3    -0.395315975489E+03   -0.32823E+03   -0.29544E+03  4680   0.694E+01
DAV:   4    -0.410470366208E+03   -0.15154E+02   -0.14355E+02  4992   0.140E+01
DAV:   5    -0.410890671561E+03   -0.42031E+00   -0.41829E+00  4944   0.243E+00    0.868E+01
RMM:   6    -0.415145078741E+03   -0.42544E+01   -0.81744E+01  3977   0.140E+01    0.751E+01
RMM:   7    -0.511426818320E+03   -0.96282E+02   -0.20828E+02  4040   0.140E+01    0.836E+01
RMM:   8    -0.579550946124E+03   -0.68124E+02   -0.21293E+02  3998   0.138E+01    0.966E+01
RMM:   9    -0.418495287539E+03    0.16106E+03   -0.49258E+01  3963   0.846E+00    0.489E+01
RMM:  10    -0.402930924255E+03    0.15564E+02   -0.55704E+01  3965   0.881E+00    0.394E+01
RMM:  11    -0.385608079623E+03    0.17323E+02   -0.13569E+01  3979   0.449E+00    0.237E+01
RMM:  12    -0.381658553068E+03    0.39495E+01   -0.35447E+00  3983   0.231E+00    0.133E+01
RMM:  13    -0.381441598600E+03    0.21695E+00   -0.14310E+00  3986   0.143E+00    0.122E+01
RMM:  14    -0.380514993069E+03    0.92661E+00   -0.55901E-01  3983   0.943E-01    0.685E+00
RMM:  15    -0.380510693194E+03    0.42999E-02   -0.27709E-01  3987   0.684E-01    0.599E+00
RMM:  16    -0.380473383297E+03    0.37310E-01   -0.27716E-01  3983   0.698E-01    0.543E+00
RMM:  17    -0.380406805642E+03    0.66578E-01   -0.28159E-01  3989   0.715E-01    0.480E+00
RMM:  18    -0.380249427461E+03    0.15738E+00   -0.74803E-02  3983   0.356E-01    0.204E+00
RMM:  19    -0.380236547445E+03    0.12880E-01   -0.33744E-02  3984   0.225E-01    0.200E+00
RMM:  20    -0.380220992237E+03    0.15555E-01   -0.15614E-02  3988   0.156E-01    0.103E+00
RMM:  21    -0.380219047126E+03    0.19451E-02   -0.63486E-03  3984   0.101E-01    0.706E-01
RMM:  22    -0.380217770333E+03    0.12768E-02   -0.34271E-03  3983   0.751E-02    0.655E-01
RMM:  23    -0.380217194599E+03    0.57573E-03   -0.21280E-03  3988   0.577E-02    0.510E-01
RMM:  24    -0.380217085083E+03    0.10952E-03   -0.16551E-03  3983   0.501E-02    0.311E-01
RMM:  25    -0.380216799091E+03    0.28599E-03   -0.69745E-04  3983   0.331E-02    0.147E-01
RMM:  26    -0.380217194904E+03   -0.39581E-03   -0.30720E-04  3992   0.205E-02    0.148E-01
RMM:  27    -0.380217739620E+03   -0.54472E-03   -0.24654E-04  3983   0.188E-02    0.106E-01
RMM:  28    -0.380217908448E+03   -0.16883E-03   -0.69641E-05  3984   0.101E-02    0.592E-02
RMM:  29    -0.380218391961E+03   -0.48351E-03   -0.81362E-05  3964   0.107E-02    0.530E-02
RMM:  30    -0.380218588053E+03   -0.19609E-03   -0.29812E-05  3949   0.629E-03    0.398E-02
RMM:  31    -0.380218844217E+03   -0.25616E-03   -0.29354E-05  3950   0.614E-03    0.321E-02
RMM:  32    -0.380219018114E+03   -0.17390E-03   -0.16018E-05  3813   0.440E-03    0.329E-02
RMM:  33    -0.380219211510E+03   -0.19340E-03   -0.14997E-05  3644   0.394E-03    0.233E-02
RMM:  34    -0.380219357589E+03   -0.14608E-03   -0.10723E-05  3390   0.314E-03    0.163E-02
RMM:  35    -0.380219474546E+03   -0.11696E-03   -0.69546E-06  3064   0.246E-03    0.129E-02
RMM:  36    -0.380219581843E+03   -0.10730E-03   -0.62437E-06  2963   0.220E-03    0.900E-03
RMM:  37    -0.380219644004E+03   -0.62161E-04   -0.35335E-06  2718   0.161E-03    0.925E-03
RMM:  38    -0.380219683556E+03   -0.39552E-04   -0.21546E-06  2508   0.125E-03    0.341E-03
RMM:  39    -0.380219697025E+03   -0.13469E-04   -0.57267E-07  1974   0.751E-04    0.109E-02
RMM:  40    -0.380219724634E+03   -0.27608E-04   -0.13026E-06  2328   0.108E-03    0.112E-02
RMM:  41    -0.380219734681E+03   -0.10047E-04   -0.48923E-07  1966   0.713E-04    0.679E-03
RMM:  42    -0.380219738288E+03   -0.36073E-05   -0.42006E-07  1984   0.636E-04    0.666E-03
RMM:  43    -0.380219743847E+03   -0.55592E-05   -0.25013E-07  1280   0.490E-04    0.170E-03
RMM:  44    -0.380219746290E+03   -0.24424E-05   -0.15056E-07  1382   0.440E-04    0.416E-03
RMM:  45    -0.380219749197E+03   -0.29079E-05   -0.17486E-07  1584   0.484E-04    0.902E-03
RMM:  46    -0.380219752486E+03   -0.32886E-05   -0.17135E-07  1649   0.474E-04    0.119E-02
RMM:  47    -0.380219752334E+03    0.15234E-06   -0.41329E-09   416   0.267E-04
   1 F= -.41529412E+03 E0= -.41494889E+03  d E =-.415294E+03
       N       E                     dE             d eps       ncg     rms          rms(c)
DAV:   1    -0.380327133738E+03   -0.10738E+00   -0.18953E+01  4080   0.682E+00    0.167E+00
RMM:   2    -0.380478818099E+03   -0.15168E+00   -0.59391E-01  3997   0.106E+00    0.445E+00
RMM:   3    -0.380389749333E+03    0.89069E-01   -0.34269E-02  4024   0.240E-01    0.246E+00
RMM:   4    -0.380454247887E+03   -0.64499E-01   -0.29419E-02  3992   0.202E-01    0.360E+00
RMM:   5    -0.380422806731E+03    0.31441E-01   -0.43797E-02  3983   0.250E-01    0.335E+00
RMM:   6    -0.380373017117E+03    0.49790E-01   -0.24104E-02  3986   0.199E-01    0.161E+00
RMM:   7    -0.380364308577E+03    0.87085E-02   -0.11818E-02  3983   0.136E-01    0.867E-01
RMM:   8    -0.380363055226E+03    0.12534E-02   -0.50680E-03  3986   0.909E-02    0.599E-01
RMM:   9    -0.380361079262E+03    0.19760E-02   -0.17797E-03  3986   0.536E-02    0.240E-01
RMM:  10    -0.380360795289E+03    0.28397E-03   -0.44166E-04  3988   0.269E-02    0.130E-01
RMM:  11    -0.380360786896E+03    0.83930E-05   -0.19797E-04  3985   0.181E-02    0.131E-01
RMM:  12    -0.380360737384E+03    0.49512E-04   -0.16499E-04  3982   0.163E-02    0.877E-02
RMM:  13    -0.380360697893E+03    0.39491E-04   -0.80438E-05  3978   0.116E-02    0.467E-02
RMM:  14    -0.380360699583E+03   -0.16902E-05   -0.18732E-05  3965   0.558E-03    0.407E-02
RMM:  15    -0.380360700047E+03   -0.46386E-06   -0.77354E-06  3844   0.362E-03
   2 F= -.41542295E+03 E0= -.41507902E+03  d E =-.128822E+00
       N       E                     dE             d eps       ncg     rms          rms(c)
DAV:   1    -0.380398381097E+03   -0.37682E-01   -0.45647E+01  3984   0.107E+01    0.281E+00
RMM:   2    -0.380739649698E+03   -0.34127E+00   -0.14431E+00  3998   0.164E+00    0.685E+00
RMM:   3    -0.380544936607E+03    0.19471E+00   -0.80015E-02  4029   0.365E-01    0.376E+00
RMM:   4    -0.380845146401E+03   -0.30021E+00   -0.10218E-01  3988   0.369E-01    0.699E+00
RMM:   5    -0.380647540292E+03    0.19761E+00   -0.12062E-01  3984   0.419E-01    0.566E+00
RMM:   6    -0.380511090236E+03    0.13645E+00   -0.62618E-02  3984   0.318E-01    0.248E+00
RMM:   7    -0.380491423779E+03    0.19666E-01   -0.32569E-02  3987   0.229E-01    0.142E+00
RMM:   8    -0.380485515922E+03    0.59079E-02   -0.12424E-02  3985   0.143E-01    0.103E+00
RMM:   9    -0.380480477446E+03    0.50385E-02   -0.44271E-03  3984   0.849E-02    0.430E-01
RMM:  10    -0.380479782915E+03    0.69453E-03   -0.13163E-03  3985   0.473E-02    0.240E-01
RMM:  11    -0.380479743785E+03    0.39130E-04   -0.69422E-04  3985   0.341E-02    0.238E-01
RMM:  12    -0.380479606150E+03    0.13764E-03   -0.41438E-04  3988   0.257E-02    0.181E-01
RMM:  13    -0.380479439106E+03    0.16704E-03   -0.18467E-04  3983   0.176E-02    0.825E-02
RMM:  14    -0.380479433587E+03    0.55189E-05   -0.72382E-05  3982   0.110E-02    0.655E-02
RMM:  15    -0.380479439725E+03   -0.61372E-05   -0.23624E-05  3963   0.633E-03    0.450E-02
RMM:  16    -0.380479441327E+03   -0.16027E-05   -0.85974E-06  3901   0.393E-03    0.303E-02
RMM:  17    -0.380479451227E+03   -0.98998E-05   -0.40932E-06  2874   0.271E-03    0.209E-02
RMM:  18    -0.380479472201E+03   -0.20974E-04   -0.38700E-06  2785   0.255E-03    0.106E-02
RMM:  19    -0.380479479076E+03   -0.68752E-05   -0.11360E-06  2206   0.154E-03    0.629E-03
RMM:  20    -0.380479484339E+03   -0.52631E-05   -0.34713E-07  2151   0.777E-04    0.401E-03
RMM:  21    -0.380479493804E+03   -0.94647E-05   -0.26044E-07  2050   0.603E-04    0.329E-03
RMM:  22    -0.380479503330E+03   -0.95262E-05   -0.28577E-07  2104   0.589E-04    0.343E-03
RMM:  23    -0.380479513461E+03   -0.10131E-04   -0.26235E-07  1568   0.517E-04    0.249E-03
RMM:  24    -0.380479519115E+03   -0.56535E-05   -0.17517E-07  1394   0.447E-04    0.206E-03
RMM:  25    -0.380479533925E+03   -0.14811E-04   -0.68880E-07  2069   0.700E-04    0.166E-03
RMM:  26    -0.380479539594E+03   -0.56686E-05   -0.32505E-07  1422   0.481E-04    0.129E-03
RMM:  27    -0.380479544904E+03   -0.53097E-05   -0.35043E-07  1601   0.500E-04    0.129E-03
RMM:  28    -0.380479547153E+03   -0.22492E-05   -0.16391E-07  1110   0.385E-04    0.105E-03
RMM:  29    -0.380479548523E+03   -0.13699E-05   -0.68853E-08   793   0.335E-04    0.630E-04
RMM:  30    -0.380479549699E+03   -0.11762E-05   -0.47064E-08   731   0.331E-04    0.522E-04
RMM:  31    -0.380479550551E+03   -0.85173E-06   -0.24511E-08   554   0.318E-04
   3 F= -.41552605E+03 E0= -.41518427E+03  d E =-.103101E+00
       N       E                     dE             d eps       ncg     rms          rms(c)
DAV:   1    -0.380493429587E+03   -0.13880E-01   -0.21591E+00  4008   0.218E+00    0.606E-01
RMM:   2    -0.380563335387E+03   -0.69906E-01   -0.83728E-02  3983   0.391E-01    0.370E+00
RMM:   3    -0.380503866394E+03    0.59469E-01   -0.84630E-03  4006   0.140E-01    0.155E+00
RMM:   4    -0.380509693171E+03   -0.58268E-02   -0.31111E-03  3998   0.749E-02    0.168E+00
RMM:   5    -0.380502200556E+03    0.74926E-02   -0.38274E-03  3983   0.774E-02    0.127E+00
RMM:   6    -0.380499783071E+03    0.24175E-02   -0.25504E-03  3986   0.639E-02    0.931E-01
RMM:   7    -0.380497997852E+03    0.17852E-02   -0.24263E-03  3983   0.620E-02    0.598E-01
RMM:   8    -0.380496654925E+03    0.13429E-02   -0.12341E-03  3982   0.450E-02    0.252E-01
RMM:   9    -0.380496624847E+03    0.30078E-04   -0.24820E-04  3987   0.219E-02    0.165E-01
RMM:  10    -0.380496626653E+03   -0.18062E-05   -0.55545E-05  3981   0.996E-03    0.130E-01
RMM:  11    -0.380496625283E+03    0.13695E-05   -0.62330E-05  3974   0.106E-02    0.855E-02
RMM:  12    -0.380496628883E+03   -0.35993E-05   -0.59469E-05  3980   0.106E-02    0.375E-02
RMM:  13    -0.380496638283E+03   -0.94009E-05   -0.11490E-05  3941   0.484E-03    0.276E-02
RMM:  14    -0.380496640417E+03   -0.21336E-05   -0.38419E-06  2712   0.268E-03    0.172E-02
RMM:  15    -0.380496643260E+03   -0.28426E-05   -0.19143E-06  2252   0.197E-03    0.883E-03
RMM:  16    -0.380496645223E+03   -0.19635E-05   -0.77171E-07  2168   0.130E-03    0.491E-03
RMM:  17    -0.380496648236E+03   -0.30128E-05   -0.45363E-07  2156   0.925E-04    0.502E-03
RMM:  18    -0.380496650790E+03   -0.25539E-05   -0.27014E-07  2144   0.683E-04    0.338E-03
RMM:  19    -0.380496651761E+03   -0.97143E-06   -0.68836E-08  1071   0.412E-04
   4 F= -.41554467E+03 E0= -.41520284E+03  d E =-.186193E-01
       N       E                     dE             d eps       ncg     rms          rms(c)
DAV:   1    -0.380511796259E+03   -0.15145E-01   -0.26907E+01  3960   0.830E+00    0.177E+00
RMM:   2    -0.380678595647E+03   -0.16680E+00   -0.73221E-01  3995   0.120E+00    0.420E+00
RMM:   3    -0.380723529797E+03   -0.44934E-01   -0.13916E-01  4002   0.452E-01    0.520E+00
RMM:   4    -0.380599924008E+03    0.12361E+00   -0.38414E-02  4009   0.261E-01    0.268E+00
RMM:   5    -0.380595773955E+03    0.41501E-02   -0.24428E-02  3986   0.189E-01    0.235E+00
RMM:   6    -0.380569742382E+03    0.26032E-01   -0.15330E-02  3987   0.156E-01    0.167E+00
RMM:   7    -0.380561588417E+03    0.81540E-02   -0.68547E-03  3987   0.107E-01    0.102E+00
RMM:   8    -0.380559106271E+03    0.24821E-02   -0.37274E-03  3983   0.777E-02    0.656E-01
RMM:   9    -0.380557839458E+03    0.12668E-02   -0.16822E-03  3987   0.533E-02    0.415E-01
RMM:  10    -0.380557305715E+03    0.53374E-03   -0.82350E-04  3984   0.372E-02    0.217E-01
RMM:  11    -0.380557337388E+03   -0.31674E-04   -0.48483E-04  3983   0.283E-02    0.171E-01
RMM:  12    -0.380557134714E+03    0.20267E-03   -0.17312E-04  3990   0.175E-02    0.555E-02
RMM:  13    -0.380557124510E+03    0.10204E-04   -0.30741E-05  3980   0.717E-03    0.401E-02
RMM:  14    -0.380557128678E+03   -0.41676E-05   -0.16047E-05  3958   0.503E-03    0.464E-02
RMM:  15    -0.380557119448E+03    0.92301E-05   -0.11931E-05  3938   0.453E-03    0.184E-02
RMM:  16    -0.380557118815E+03    0.63300E-06   -0.20382E-06  2245   0.203E-03
   5 F= -.41560064E+03 E0= -.41525970E+03  d E =-.559714E-01
       N       E                     dE             d eps       ncg     rms          rms(c)
DAV:   1    -0.380572782585E+03   -0.15663E-01   -0.49799E+00  3960   0.365E+00    0.725E-01
RMM:   2    -0.380663333008E+03   -0.90550E-01   -0.15712E-01  3990   0.531E-01    0.378E+00
RMM:   3    -0.380610162748E+03    0.53170E-01   -0.29088E-02  4000   0.217E-01    0.200E+00
RMM:   4    -0.380588970930E+03    0.21192E-01   -0.12200E-02  3994   0.149E-01    0.963E-01
RMM:   5    -0.380582312506E+03    0.66584E-02   -0.49501E-03  3985   0.866E-02    0.495E-01
RMM:   6    -0.380581130405E+03    0.11821E-02   -0.11973E-03  3992   0.461E-02    0.327E-01
RMM:   7    -0.380580750328E+03    0.38008E-03   -0.59731E-04  3984   0.319E-02    0.216E-01
RMM:   8    -0.380580770845E+03   -0.20518E-04   -0.49588E-04  3986   0.284E-02    0.191E-01
RMM:   9    -0.380580658995E+03    0.11185E-03   -0.29905E-04  3987   0.225E-02    0.134E-01
RMM:  10    -0.380580547969E+03    0.11103E-03   -0.10321E-04  3985   0.132E-02    0.526E-02
RMM:  11    -0.380580540681E+03    0.72879E-05   -0.28400E-05  3975   0.681E-03    0.352E-02
RMM:  12    -0.380580541603E+03   -0.92149E-06   -0.10832E-05  3943   0.426E-03    0.226E-02
RMM:  13    -0.380580540484E+03    0.11184E-05   -0.52068E-06  3323   0.306E-03    0.110E-02
RMM:  14    -0.380580541679E+03   -0.11951E-05   -0.14383E-06  2197   0.168E-03    0.108E-02
RMM:  15    -0.380580543416E+03   -0.17365E-05   -0.99659E-07  2142   0.144E-03    0.771E-03
RMM:  16    -0.380580544617E+03   -0.12012E-05   -0.47520E-07  2118   0.105E-03    0.301E-03
RMM:  17    -0.380580545631E+03   -0.10139E-05   -0.16421E-07  2079   0.619E-04    0.191E-03
RMM:  18    -0.380580547039E+03   -0.14075E-05   -0.48293E-08   976   0.405E-04    0.201E-03
RMM:  19    -0.380580548875E+03   -0.18365E-05   -0.78724E-08  1163   0.414E-04    0.110E-03
RMM:  20    -0.380580550088E+03   -0.12128E-05   -0.56966E-08   914   0.372E-04    0.893E-04
RMM:  21    -0.380580551161E+03   -0.10735E-05   -0.54118E-08   876   0.358E-04    0.933E-04
RMM:  22    -0.380580552877E+03   -0.17159E-05   -0.13127E-07  1272   0.403E-04    0.905E-04
RMM:  23    -0.380580553890E+03   -0.10130E-05   -0.64949E-08   866   0.342E-04    0.754E-04
RMM:  24    -0.380580555087E+03   -0.11971E-05   -0.12150E-07  1117   0.379E-04    0.286E-04
RMM:  25    -0.380580555619E+03   -0.53203E-06   -0.46946E-08   714   0.326E-04
   6 F= -.41562493E+03 E0= -.41528388E+03  d E =-.242949E-01
       N       E                     dE             d eps       ncg     rms          rms(c)
DAV:   1    -0.380576073624E+03    0.44815E-02   -0.37766E+01  3960   0.103E+01    0.209E+00
RMM:   2    -0.381149852746E+03   -0.57378E+00   -0.10925E+00  3990   0.140E+00    0.846E+00
RMM:   3    -0.380987709814E+03    0.16214E+00   -0.24747E-01  3993   0.591E-01    0.675E+00
RMM:   4    -0.380689778259E+03    0.29793E+00   -0.93637E-02  3994   0.386E-01    0.273E+00
RMM:   5    -0.380660072137E+03    0.29706E-01   -0.31539E-02  3984   0.220E-01    0.163E+00
RMM:   6    -0.380647713832E+03    0.12358E-01   -0.12128E-02  3985   0.144E-01    0.129E+00
RMM:   7    -0.380643736015E+03    0.39778E-02   -0.55423E-03  3986   0.974E-02    0.872E-01
RMM:   8    -0.380642239549E+03    0.14965E-02   -0.36560E-03  3983   0.771E-02    0.604E-01
RMM:   9    -0.380640767698E+03    0.14719E-02   -0.19108E-03  3985   0.564E-02    0.321E-01
RMM:  10    -0.380640276390E+03    0.49131E-03   -0.73710E-04  3987   0.355E-02    0.153E-01
RMM:  11    -0.380640418592E+03   -0.14220E-03   -0.40585E-04  3986   0.259E-02    0.175E-01
RMM:  12    -0.380640275958E+03    0.14263E-03   -0.15266E-04  3983   0.164E-02    0.731E-02
RMM:  13    -0.380640240488E+03    0.35470E-04   -0.55368E-05  3983   0.968E-03    0.383E-02
RMM:  14    -0.380640248024E+03   -0.75358E-05   -0.18182E-05  3959   0.544E-03    0.453E-02
RMM:  15    -0.380640242629E+03    0.53943E-05   -0.11155E-05  3941   0.436E-03    0.272E-02
RMM:  16    -0.380640239466E+03    0.31638E-05   -0.43537E-06  2976   0.279E-03    0.771E-03
RMM:  17    -0.380640241097E+03   -0.16311E-05   -0.10950E-06  2145   0.152E-03    0.505E-03
RMM:  18    -0.380640244201E+03   -0.31042E-05   -0.48651E-07  2150   0.101E-03    0.498E-03
RMM:  19    -0.380640245696E+03   -0.14955E-05   -0.20262E-07  2115   0.659E-04    0.265E-03
RMM:  20    -0.380640247255E+03   -0.15591E-05   -0.83093E-08  1331   0.447E-04    0.199E-03
RMM:  21    -0.380640249412E+03   -0.21569E-05   -0.77320E-08  1198   0.420E-04    0.145E-03
RMM:  22    -0.380640251065E+03   -0.16531E-05   -0.80006E-08  1153   0.390E-04    0.130E-03
RMM:  23    -0.380640253117E+03   -0.20517E-05   -0.10263E-07  1177   0.399E-04    0.121E-03
RMM:  24    -0.380640255242E+03   -0.21246E-05   -0.16465E-07  1421   0.415E-04    0.600E-04
RMM:  25    -0.380640256147E+03   -0.90557E-06   -0.30850E-08   633   0.304E-04
   7 F= -.41568661E+03 E0= -.41534510E+03  d E =-.616741E-01
       N       E                     dE             d eps       ncg     rms          rms(c)
DAV:   1    -0.380649237973E+03   -0.89827E-02   -0.16567E+01  3960   0.699E+00    0.134E+00
RMM:   2    -0.380941308812E+03   -0.29207E+00   -0.47433E-01  3991   0.917E-01    0.661E+00
RMM:   3    -0.380798780114E+03    0.14253E+00   -0.10306E-01  3994   0.391E-01    0.406E+00
RMM:   4    -0.380701161642E+03    0.97618E-01   -0.39277E-02  3990   0.260E-01    0.181E+00
RMM:   5    -0.380685374332E+03    0.15787E-01   -0.14299E-02  3984   0.147E-01    0.105E+00
RMM:   6    -0.380679229533E+03    0.61448E-02   -0.41948E-03  3984   0.861E-02    0.672E-01
RMM:   7    -0.380678341976E+03    0.88756E-03   -0.19877E-03  3987   0.584E-02    0.489E-01
RMM:   8    -0.380677961596E+03    0.38038E-03   -0.14359E-03  3983   0.482E-02    0.348E-01
RMM:   9    -0.380677433199E+03    0.52840E-03   -0.73907E-04  3985   0.352E-02    0.186E-01
RMM:  10    -0.380677245275E+03    0.18792E-03   -0.27172E-04  3986   0.215E-02    0.890E-02
RMM:  11    -0.380677283430E+03   -0.38155E-04   -0.13207E-04  3985   0.147E-02    0.961E-02
RMM:  12    -0.380677247117E+03    0.36313E-04   -0.50062E-05  3982   0.932E-03    0.450E-02
RMM:  13    -0.380677232689E+03    0.14428E-04   -0.19439E-05  3961   0.577E-03    0.207E-02
RMM:  14    -0.380677234896E+03   -0.22067E-05   -0.57550E-06  3455   0.310E-03    0.207E-02
RMM:  15    -0.380677235932E+03   -0.10360E-05   -0.30629E-06  2512   0.243E-03    0.174E-02
RMM:  16    -0.380677235371E+03    0.56101E-06   -0.12326E-06  2150   0.167E-03
   8 F= -.41572543E+03 E0= -.41538346E+03  d E =-.388191E-01
       N       E                     dE             d eps       ncg     rms          rms(c)
DAV:   1    -0.380665750188E+03    0.11486E-01   -0.34112E+01  3960   0.101E+01    0.176E+00
RMM:   2    -0.381173505139E+03   -0.50775E+00   -0.89128E-01  3990   0.126E+00    0.850E+00
RMM:   3    -0.380942887765E+03    0.23062E+00   -0.18070E-01  3992   0.513E-01    0.538E+00
RMM:   4    -0.380767944861E+03    0.17494E+00   -0.65588E-02  3992   0.331E-01    0.245E+00
RMM:   5    -0.380742153477E+03    0.25791E-01   -0.23235E-02  3984   0.189E-01    0.145E+00
RMM:   6    -0.380730173811E+03    0.11980E-01   -0.72004E-03  3985   0.113E-01    0.865E-01
RMM:   7    -0.380729114388E+03    0.10594E-02   -0.31537E-03  3985   0.736E-02    0.647E-01
RMM:   8    -0.380728344271E+03    0.77012E-03   -0.24254E-03  3984   0.626E-02    0.436E-01
RMM:   9    -0.380727494540E+03    0.84973E-03   -0.12894E-03  3985   0.467E-02    0.241E-01
RMM:  10    -0.380727277988E+03    0.21655E-03   -0.50794E-04  3986   0.293E-02    0.169E-01
RMM:  11    -0.380727300171E+03   -0.22183E-04   -0.27072E-04  3985   0.209E-02    0.149E-01
RMM:  12    -0.380727197013E+03    0.10316E-03   -0.10665E-04  3983   0.137E-02    0.585E-02
RMM:  13    -0.380727180337E+03    0.16675E-04   -0.36693E-05  3970   0.799E-03    0.330E-02
RMM:  14    -0.380727185868E+03   -0.55306E-05   -0.11871E-05  3948   0.439E-03    0.364E-02
RMM:  15    -0.380727183736E+03    0.21317E-05   -0.68690E-06  3786   0.345E-03    0.218E-02
RMM:  16    -0.380727182776E+03    0.96023E-06   -0.26571E-06  2383   0.225E-03
   9 F= -.41577868E+03 E0= -.41543600E+03  d E =-.532552E-01
       N       E                     dE             d eps       ncg     rms          rms(c)
DAV:   1    -0.380738296166E+03   -0.11112E-01   -0.36377E+00  3960   0.336E+00    0.537E-01
RMM:   2    -0.380796714138E+03   -0.58418E-01   -0.99011E-02  3991   0.416E-01    0.330E+00
RMM:   3    -0.380758045558E+03    0.38669E-01   -0.16388E-02  3992   0.167E-01    0.146E+00
RMM:   4    -0.380749469619E+03    0.85759E-02   -0.63653E-03  3990   0.116E-01    0.780E-01
RMM:   5    -0.380745809270E+03    0.36603E-02   -0.24539E-03  3983   0.608E-02    0.401E-01
RMM:   6    -0.380744744343E+03    0.10649E-02   -0.64383E-04  3986   0.341E-02    0.200E-01
RMM:   7    -0.380744667431E+03    0.76912E-04   -0.22876E-04  3985   0.200E-02    0.138E-01
RMM:   8    -0.380744717836E+03   -0.50405E-04   -0.21636E-04  3983   0.188E-02    0.128E-01
RMM:   9    -0.380744667802E+03    0.50034E-04   -0.13558E-04  3986   0.152E-02    0.801E-02
RMM:  10    -0.380744633060E+03    0.34742E-04   -0.44658E-05  3969   0.869E-03    0.449E-02
RMM:  11    -0.380744630012E+03    0.30484E-05   -0.12735E-05  3949   0.453E-03    0.312E-02
RMM:  12    -0.380744629932E+03    0.79352E-07   -0.50542E-06  3267   0.297E-03
  10 F= -.41579764E+03 E0= -.41545463E+03  d E =-.189593E-01
       N       E                     dE             d eps       ncg     rms          rms(c)
DAV:   1    -0.380704772309E+03    0.39858E-01   -0.81248E+00  3960   0.503E+00    0.822E-01
RMM:   2    -0.380829854557E+03   -0.12508E+00   -0.24934E-01  3991   0.643E-01    0.459E+00
RMM:   3    -0.380765489274E+03    0.64365E-01   -0.38356E-02  3992   0.244E-01    0.254E+00
RMM:   4    -0.380726370994E+03    0.39118E-01   -0.14493E-02  3988   0.164E-01    0.103E+00
RMM:   5    -0.380721470377E+03    0.49006E-02   -0.45922E-03  3984   0.848E-02    0.588E-01
RMM:   6    -0.380719398475E+03    0.20719E-02   -0.13586E-03  3987   0.495E-02    0.349E-01
RMM:   7    -0.380719168852E+03    0.22962E-03   -0.59365E-04  3984   0.320E-02    0.262E-01
RMM:   8    -0.380719180121E+03   -0.11269E-04   -0.50379E-04  3983   0.287E-02    0.199E-01
RMM:   9    -0.380719080444E+03    0.99677E-04   -0.32333E-04  3988   0.237E-02    0.137E-01
RMM:  10    -0.380718977099E+03    0.10334E-03   -0.10673E-04  3985   0.134E-02    0.683E-02
RMM:  11    -0.380718964684E+03    0.12416E-04   -0.21286E-05  3958   0.589E-03    0.452E-02
RMM:  12    -0.380718962488E+03    0.21955E-05   -0.99718E-06  3930   0.403E-03    0.278E-02
RMM:  13    -0.380718960795E+03    0.16933E-05   -0.46165E-06  3097   0.295E-03    0.165E-02
RMM:  14    -0.380718960700E+03    0.94675E-07   -0.19200E-06  2232   0.203E-03
  11 F= -.41576996E+03 E0= -.41542740E+03  d E =0.276787E-01
       N       E                     dE             d eps       ncg     rms          rms(c)
DAV:   1    -0.380729193785E+03   -0.10233E-01   -0.23218E+00  3960   0.269E+00    0.438E-01
RMM:   2    -0.380768557976E+03   -0.39364E-01   -0.64603E-02  3991   0.335E-01    0.268E+00
RMM:   3    -0.380742598124E+03    0.25960E-01   -0.11076E-02  3991   0.137E-01    0.123E+00
RMM:   4    -0.380736259125E+03    0.63390E-02   -0.43695E-03  3988   0.964E-02    0.636E-01
RMM:   5    -0.380733940253E+03    0.23189E-02   -0.15969E-03  3983   0.492E-02    0.327E-01
RMM:   6    -0.380733262815E+03    0.67744E-03   -0.43936E-04  3986   0.281E-02    0.176E-01
RMM:   7    -0.380733203173E+03    0.59642E-04   -0.15495E-04  3985   0.165E-02    0.118E-01
RMM:   8    -0.380733233889E+03   -0.30716E-04   -0.14205E-04  3982   0.152E-02    0.103E-01
RMM:   9    -0.380733202338E+03    0.31551E-04   -0.90167E-05  3984   0.124E-02    0.604E-02
RMM:  10    -0.380733178036E+03    0.24302E-04   -0.30056E-05  3961   0.716E-03    0.297E-02
RMM:  11    -0.380733176286E+03    0.17498E-05   -0.74008E-06  3837   0.347E-03    0.217E-02
RMM:  12    -0.380733175444E+03    0.84215E-06   -0.29443E-06  2489   0.234E-03
  12 F= -.41578543E+03 E0= -.41544259E+03  d E =-.154720E-01
       N       E                     dE             d eps       ncg     rms          rms(c)
DAV:   1    -0.380729280592E+03    0.38957E-02   -0.15873E-01  3984   0.705E-01    0.114E-01
RMM:   2    -0.380731736457E+03   -0.24559E-02   -0.45369E-03  3991   0.881E-02    0.676E-01
RMM:   3    -0.380730248913E+03    0.14875E-02   -0.74504E-04  3991   0.355E-02    0.344E-01
RMM:   4    -0.380729726797E+03    0.52212E-03   -0.29091E-04  3986   0.252E-02    0.161E-01
RMM:   5    -0.380729597912E+03    0.12888E-03   -0.98711E-05  3975   0.123E-02    0.893E-02
RMM:   6    -0.380729557365E+03    0.40547E-04   -0.28568E-05  3959   0.721E-03    0.528E-02
RMM:   7    -0.380729554181E+03    0.31837E-05   -0.11291E-05  3921   0.444E-03    0.376E-02
RMM:   8    -0.380729556047E+03   -0.18656E-05   -0.10475E-05  3915   0.415E-03    0.284E-02
RMM:   9    -0.380729553732E+03    0.23150E-05   -0.62618E-06  3698   0.332E-03    0.164E-02
RMM:  10    -0.380729551957E+03    0.17744E-05   -0.17350E-06  2191   0.185E-03    0.649E-03
RMM:  11    -0.380729551840E+03    0.11740E-06   -0.46830E-07  2027   0.977E-04
  13 F= -.41578153E+03 E0= -.41543876E+03  d E =0.389936E-02
       N       E                     dE             d eps       ncg     rms          rms(c)
DAV:   1    -0.380712938825E+03    0.16613E-01   -0.22336E+00  3960   0.261E+00    0.441E-01
RMM:   2    -0.380748313991E+03   -0.35375E-01   -0.66865E-02  3990   0.337E-01    0.253E+00
RMM:   3    -0.380728897751E+03    0.19416E-01   -0.11142E-02  3992   0.134E-01    0.136E+00
RMM:   4    -0.380719040280E+03    0.98575E-02   -0.40914E-03  3993   0.913E-02    0.575E-01
RMM:   5    -0.380717585945E+03    0.14543E-02   -0.13791E-03  3984   0.463E-02    0.343E-01
RMM:   6    -0.380716926287E+03    0.65966E-03   -0.40981E-04  3989   0.271E-02    0.206E-01
RMM:   7    -0.380716864873E+03    0.61414E-04   -0.19403E-04  3978   0.182E-02    0.152E-01
RMM:   8    -0.380716871575E+03   -0.67021E-05   -0.16574E-04  3980   0.164E-02    0.114E-01
RMM:   9    -0.380716836405E+03    0.35171E-04   -0.99442E-05  3983   0.131E-02    0.711E-02
RMM:  10    -0.380716805604E+03    0.30801E-04   -0.31357E-05  3963   0.729E-03    0.286E-02
RMM:  11    -0.380716802664E+03    0.29401E-05   -0.61221E-06  3641   0.320E-03    0.181E-02
RMM:  12    -0.380716802460E+03    0.20349E-06   -0.25934E-06  2345   0.218E-03
  14 F= -.41576806E+03 E0= -.41542551E+03  d E =0.134757E-01
       N       E                     dE             d eps       ncg     rms          rms(c)
DAV:   1    -0.380719513288E+03   -0.27106E-02   -0.10830E-01  3972   0.577E-01    0.987E-02
RMM:   2    -0.380721245095E+03   -0.17318E-02   -0.30898E-03  3991   0.732E-02    0.569E-01
RMM:   3    -0.380720215504E+03    0.10296E-02   -0.56389E-04  3992   0.308E-02    0.305E-01
RMM:   4    -0.380719821795E+03    0.39371E-03   -0.21149E-04  3988   0.219E-02    0.141E-01
RMM:   5    -0.380719736203E+03    0.85592E-04   -0.72041E-05  3969   0.105E-02    0.851E-02
RMM:   6    -0.380719703765E+03    0.32438E-04   -0.21498E-05  3951   0.622E-03    0.538E-02
RMM:   7    -0.380719700135E+03    0.36299E-05   -0.94279E-06  3907   0.405E-03    0.374E-02
RMM:   8    -0.380719700994E+03   -0.85848E-06   -0.84035E-06  3842   0.371E-03
  15 F= -.41577109E+03 E0= -.41542847E+03  d E =-.303580E-02
       N       E                     dE             d eps       ncg     rms          rms(c)
DAV:   1    -0.380726074224E+03   -0.63741E-02   -0.67312E-01  3960   0.144E+00    0.237E-01
RMM:   2    -0.380739150740E+03   -0.13077E-01   -0.19533E-02  3991   0.184E-01    0.157E+00
RMM:   3    -0.380729545070E+03    0.96057E-02   -0.33333E-03  3994   0.768E-02    0.627E-01
RMM:   4    -0.380728066560E+03    0.14785E-02   -0.12663E-03  3991   0.530E-02    0.324E-01
RMM:   5    -0.380727405948E+03    0.66061E-03   -0.48091E-04  3983   0.271E-02    0.164E-01
RMM:   6    -0.380727247690E+03    0.15826E-03   -0.12455E-04  3986   0.151E-02    0.899E-02
RMM:   7    -0.380727225013E+03    0.22677E-04   -0.41900E-05  3965   0.858E-03    0.544E-02
RMM:   8    -0.380727238937E+03   -0.13924E-04   -0.42328E-05  3973   0.833E-03    0.553E-02
RMM:   9    -0.380727226275E+03    0.12662E-04   -0.26554E-05  3960   0.678E-03    0.308E-02
RMM:  10    -0.380727219661E+03    0.66143E-05   -0.80831E-06  3858   0.371E-03    0.123E-02
RMM:  11    -0.380727219630E+03    0.30239E-07   -0.16389E-06  2130   0.178E-03
  16 F= -.41577944E+03 E0= -.41543666E+03  d E =-.835024E-02
       N       E                     dE             d eps       ncg     rms          rms(c)
DAV:   1    -0.380690468218E+03    0.36751E-01   -0.71085E+00  3960   0.471E+00    0.795E-01
RMM:   2    -0.380815882616E+03   -0.12541E+00   -0.22590E-01  3991   0.610E-01    0.461E+00
RMM:   3    -0.380746098504E+03    0.69784E-01   -0.37086E-02  3992   0.240E-01    0.245E+00
RMM:   4    -0.380709163197E+03    0.36935E-01   -0.13932E-02  3987   0.161E-01    0.958E-01
RMM:   5    -0.380704645958E+03    0.45172E-02   -0.43119E-03  3983   0.823E-02    0.543E-01
RMM:   6    -0.380702870840E+03    0.17751E-02   -0.12352E-03  3989   0.473E-02    0.319E-01
RMM:   7    -0.380702650700E+03    0.22014E-03   -0.52091E-04  3983   0.301E-02    0.231E-01
RMM:   8    -0.380702669791E+03   -0.19091E-04   -0.44183E-04  3984   0.269E-02    0.178E-01
RMM:   9    -0.380702606357E+03    0.63434E-04   -0.28741E-04  3984   0.223E-02    0.125E-01
RMM:  10    -0.380702509446E+03    0.96910E-04   -0.99341E-05  3986   0.130E-02    0.604E-02
RMM:  11    -0.380702497984E+03    0.11462E-04   -0.18126E-05  3956   0.543E-03    0.395E-02
RMM:  12    -0.380702496904E+03    0.10806E-05   -0.88186E-06  3916   0.377E-03    0.274E-02
RMM:  13    -0.380702495079E+03    0.18248E-05   -0.41384E-06  2850   0.279E-03    0.167E-02
RMM:  14    -0.380702494903E+03    0.17550E-06   -0.17839E-06  2218   0.197E-03
  17 F= -.41575256E+03 E0= -.41541031E+03  d E =0.268843E-01
       N       E                     dE             d eps       ncg     rms          rms(c)
DAV:   1    -0.380635583159E+03    0.66912E-01   -0.17604E+01  3960   0.742E+00    0.132E+00
RMM:   2    -0.380965322484E+03   -0.32974E+00   -0.61297E-01  3991   0.988E-01    0.706E+00
RMM:   3    -0.380815193161E+03    0.15013E+00   -0.10557E-01  3997   0.392E-01    0.437E+00
RMM:   4    -0.380678584898E+03    0.13661E+00   -0.39585E-02  3986   0.259E-01    0.141E+00
RMM:   5    -0.380669458209E+03    0.91267E-02   -0.10589E-02  3983   0.131E-01    0.837E-01
RMM:   6    -0.380665495724E+03    0.39625E-02   -0.30010E-03  3987   0.736E-02    0.531E-01
RMM:   7    -0.380664939486E+03    0.55624E-03   -0.14471E-03  3985   0.500E-02    0.405E-01
RMM:   8    -0.380664804116E+03    0.13537E-03   -0.11568E-03  3983   0.436E-02    0.292E-01
RMM:   9    -0.380664686348E+03    0.11777E-03   -0.77297E-04  3988   0.366E-02    0.235E-01
RMM:  10    -0.380664388578E+03    0.29777E-03   -0.28641E-04  3984   0.222E-02    0.123E-01
RMM:  11    -0.380664345470E+03    0.43108E-04   -0.57970E-05  3983   0.969E-03    0.808E-02
RMM:  12    -0.380664339540E+03    0.59305E-05   -0.28261E-05  3964   0.672E-03    0.529E-02
RMM:  13    -0.380664334430E+03    0.51099E-05   -0.13437E-05  3939   0.486E-03    0.296E-02
RMM:  14    -0.380664334183E+03    0.24658E-06   -0.56398E-06  3424   0.323E-03
  18 F= -.41571123E+03 E0= -.41536995E+03  d E =0.413343E-01
       N       E                     dE             d eps       ncg     rms          rms(c)
DAV:   1    -0.380623162280E+03    0.41172E-01   -0.96052E+00  3960   0.549E+00    0.103E+00
RMM:   2    -0.380811241640E+03   -0.18808E+00   -0.33666E-01  3992   0.736E-01    0.546E+00
RMM:   3    -0.380732234492E+03    0.79007E-01   -0.65164E-02  4000   0.309E-01    0.353E+00
RMM:   4    -0.380647054888E+03    0.85180E-01   -0.24564E-02  3983   0.208E-01    0.119E+00
RMM:   5    -0.380640830929E+03    0.62240E-02   -0.60877E-03  3983   0.996E-02    0.668E-01
RMM:   6    -0.380638431256E+03    0.23997E-02   -0.18070E-03  3987   0.570E-02    0.469E-01
RMM:   7    -0.380638023920E+03    0.40734E-03   -0.87676E-04  3985   0.388E-02    0.351E-01
RMM:   8    -0.380637890339E+03    0.13358E-03   -0.70168E-04  3984   0.340E-02    0.241E-01
RMM:   9    -0.380637852237E+03    0.38102E-04   -0.47159E-04  3986   0.286E-02    0.188E-01
RMM:  10    -0.380637663600E+03    0.18864E-03   -0.17926E-04  3985   0.175E-02    0.910E-02
RMM:  11    -0.380637640979E+03    0.22621E-04   -0.36344E-05  3983   0.766E-03    0.623E-02
RMM:  12    -0.380637636727E+03    0.42518E-05   -0.15696E-05  3954   0.502E-03    0.417E-02
RMM:  13    -0.380637634070E+03    0.26576E-05   -0.75526E-06  3871   0.365E-03    0.212E-02
RMM:  14    -0.380637635968E+03   -0.18983E-05   -0.30385E-06  2548   0.244E-03    0.158E-02
RMM:  15    -0.380637638259E+03   -0.22908E-05   -0.16938E-06  2232   0.187E-03    0.939E-03
RMM:  16    -0.380637639212E+03   -0.95333E-06   -0.54179E-07  2123   0.112E-03
  19 F= -.41568265E+03 E0= -.41534219E+03  d E =0.285743E-01
       N       E                     dE             d eps       ncg     rms          rms(c)
DAV:   1    -0.380068115329E+03    0.56952E+00   -0.22693E+02  3984   0.264E+01    0.492E+00
RMM:   2    -0.382416666519E+03   -0.23486E+01   -0.11022E+01  4004   0.362E+00    0.137E+01
RMM:   3    -0.383887187054E+03   -0.14705E+01   -0.13816E+00  3987   0.132E+00    0.190E+01
RMM:   4    -0.380644491118E+03    0.32427E+01   -0.55048E-01  3985   0.885E-01    0.372E+00
RMM:   5    -0.380558392110E+03    0.86099E-01   -0.92541E-02  3987   0.395E-01    0.221E+00
RMM:   6    -0.380534088319E+03    0.24304E-01   -0.21030E-02  3985   0.189E-01    0.164E+00
RMM:   7    -0.380538156093E+03   -0.40678E-02   -0.16730E-02  3985   0.170E-01    0.176E+00
RMM:   8    -0.380542759075E+03   -0.46030E-02   -0.21531E-02  3986   0.188E-01    0.176E+00
RMM:   9    -0.380528843046E+03    0.13916E-01   -0.18666E-02  3984   0.181E-01    0.896E-01
RMM:  10    -0.380523297690E+03    0.55454E-02   -0.55417E-03  3984   0.963E-02    0.405E-01
RMM:  11    -0.380522709499E+03    0.58819E-03   -0.10610E-03  3988   0.403E-02    0.283E-01
RMM:  12    -0.380522404692E+03    0.30481E-03   -0.42688E-04  3979   0.260E-02    0.173E-01
RMM:  13    -0.380522310716E+03    0.93977E-04   -0.22986E-04  3984   0.196E-02    0.121E-01
RMM:  14    -0.380522298350E+03    0.12366E-04   -0.89096E-05  3988   0.119E-02    0.859E-02
RMM:  15    -0.380522300417E+03   -0.20668E-05   -0.45883E-05  3977   0.880E-03    0.505E-02
RMM:  16    -0.380522321966E+03   -0.21549E-04   -0.29454E-05  3966   0.711E-03    0.343E-02
RMM:  17    -0.380522339181E+03   -0.17215E-04   -0.10769E-05  3943   0.421E-03    0.212E-02
RMM:  18    -0.380522350272E+03   -0.11091E-04   -0.34833E-06  2691   0.250E-03    0.104E-02
RMM:  19    -0.380522363857E+03   -0.13585E-04   -0.12660E-06  2228   0.150E-03    0.110E-02
RMM:  20    -0.380522393233E+03   -0.29375E-04   -0.14382E-06  2302   0.147E-03    0.979E-03
RMM:  21    -0.380522414135E+03   -0.20902E-04   -0.92108E-07  2237   0.108E-03    0.743E-03
RMM:  22    -0.380522430130E+03   -0.15995E-04   -0.61074E-07  2202   0.792E-04    0.554E-03
RMM:  23    -0.380522450028E+03   -0.19898E-04   -0.72740E-07  2219   0.768E-04    0.283E-03
RMM:  24    -0.380522467332E+03   -0.17304E-04   -0.69678E-07  2104   0.718E-04    0.171E-03
RMM:  25    -0.380522485551E+03   -0.18218E-04   -0.96563E-07  2261   0.799E-04    0.169E-03
RMM:  26    -0.380522497114E+03   -0.11563E-04   -0.66337E-07  1830   0.654E-04    0.164E-03
RMM:  27    -0.380522503007E+03   -0.58927E-05   -0.37745E-07  1551   0.513E-04    0.160E-03
RMM:  28    -0.380522507513E+03   -0.45065E-05   -0.24076E-07  1318   0.434E-04    0.151E-03
RMM:  29    -0.380522510002E+03   -0.24891E-05   -0.10683E-07   990   0.357E-04    0.132E-03
RMM:  30    -0.380522514282E+03   -0.42798E-05   -0.15935E-07  1241   0.390E-04    0.868E-04
RMM:  31    -0.380522515931E+03   -0.16486E-05   -0.34617E-08   626   0.326E-04    0.457E-04
RMM:  32    -0.380522517779E+03   -0.18484E-05   -0.56052E-08   796   0.346E-04    0.847E-04
RMM:  33    -0.380522518934E+03   -0.11549E-05   -0.47907E-08   739   0.339E-04    0.766E-04
RMM:  34    -0.380522519643E+03   -0.70944E-06   -0.18626E-08   532   0.327E-04
  20 F= -.41555764E+03 E0= -.41522000E+03  d E =0.125009E+00
       N       E                     dE             d eps       ncg     rms          rms(c)
DAV:   1    -0.380519862488E+03    0.26564E-02   -0.34646E+01  3960   0.102E+01    0.237E+00
RMM:   2    -0.381373704625E+03   -0.85384E+00   -0.12538E+00  3989   0.146E+00    0.996E+00
RMM:   3    -0.381004983002E+03    0.36872E+00   -0.29960E-01  3996   0.640E-01    0.719E+00
RMM:   4    -0.380632607046E+03    0.37238E+00   -0.14431E-01  3984   0.461E-01    0.277E+00
RMM:   5    -0.380576544555E+03    0.56062E-01   -0.51452E-02  3982   0.280E-01    0.144E+00
RMM:   6    -0.380567269862E+03    0.92747E-02   -0.10346E-02  3990   0.138E-01    0.806E-01
RMM:   7    -0.380565266339E+03    0.20035E-02   -0.42531E-03  3984   0.862E-02    0.613E-01
RMM:   8    -0.380564834579E+03    0.43176E-03   -0.31232E-03  3983   0.714E-02    0.481E-01
RMM:   9    -0.380564487415E+03    0.34716E-03   -0.19993E-03  3987   0.588E-02    0.358E-01
RMM:  10    -0.380563700804E+03    0.78661E-03   -0.81083E-04  3983   0.374E-02    0.171E-01
RMM:  11    -0.380563558551E+03    0.14225E-03   -0.21689E-04  3986   0.190E-02    0.902E-02
RMM:  12    -0.380563557773E+03    0.77822E-06   -0.69063E-05  3984   0.107E-02    0.594E-02
RMM:  13    -0.380563567351E+03   -0.95782E-05   -0.33078E-05  3967   0.745E-03    0.402E-02
RMM:  14    -0.380563569877E+03   -0.25264E-05   -0.99957E-06  3943   0.413E-03    0.253E-02
RMM:  15    -0.380563580834E+03   -0.10957E-04   -0.65852E-06  3709   0.330E-03    0.226E-02
RMM:  16    -0.380563595165E+03   -0.14332E-04   -0.37460E-06  2732   0.259E-03    0.114E-02
RMM:  17    -0.380563601757E+03   -0.65913E-05   -0.12397E-06  2207   0.161E-03    0.572E-03
RMM:  18    -0.380563610030E+03   -0.82727E-05   -0.57861E-07  2185   0.962E-04    0.576E-03
RMM:  19    -0.380563619645E+03   -0.96155E-05   -0.49637E-07  2211   0.792E-04    0.406E-03
RMM:  20    -0.380563626654E+03   -0.70087E-05   -0.34154E-07  2038   0.623E-04    0.319E-03
RMM:  21    -0.380563637137E+03   -0.10483E-04   -0.54348E-07  2174   0.711E-04    0.198E-03
RMM:  22    -0.380563644705E+03   -0.75683E-05   -0.41295E-07  1752   0.584E-04    0.154E-03
RMM:  23    -0.380563651478E+03   -0.67730E-05   -0.42834E-07  1935   0.597E-04    0.215E-03
RMM:  24    -0.380563661094E+03   -0.96164E-05   -0.92275E-07  2174   0.797E-04    0.180E-03
RMM:  25    -0.380563663483E+03   -0.23890E-05   -0.24127E-07  1231   0.440E-04    0.108E-03
RMM:  26    -0.380563665934E+03   -0.24509E-05   -0.25963E-07  1574   0.462E-04    0.994E-04
RMM:  27    -0.380563667125E+03   -0.11907E-05   -0.90710E-08   878   0.345E-04    0.444E-04
RMM:  28    -0.380563668580E+03   -0.14548E-05   -0.11816E-07  1098   0.381E-04    0.548E-04
RMM:  29    -0.380563669242E+03   -0.66264E-06   -0.46156E-08   731   0.336E-04
  21 F= -.41560440E+03 E0= -.41526596E+03  d E =-.467591E-01
       N       E                     dE             d eps       ncg     rms          rms(c)
DAV:   1    -0.380550218537E+03    0.13450E-01   -0.24450E+00  3960   0.275E+00    0.564E-01
RMM:   2    -0.380585750431E+03   -0.35532E-01   -0.91178E-02  3994   0.379E-01    0.208E+00
RMM:   3    -0.380587042912E+03   -0.12925E-02   -0.18111E-02  4009   0.158E-01    0.204E+00
RMM:   4    -0.380555927755E+03    0.31115E-01   -0.75201E-03  3980   0.110E-01    0.588E-01
RMM:   5    -0.380554017604E+03    0.19102E-02   -0.17443E-03  3985   0.534E-02    0.302E-01
RMM:   6    -0.380553671973E+03    0.34563E-03   -0.57377E-04  3984   0.314E-02    0.242E-01
RMM:   7    -0.380553593177E+03    0.78797E-04   -0.34474E-04  3986   0.241E-02    0.193E-01
RMM:   8    -0.380553505278E+03    0.87899E-04   -0.26457E-04  3983   0.210E-02    0.118E-01
RMM:   9    -0.380553476428E+03    0.28850E-04   -0.12786E-04  3988   0.150E-02    0.890E-02
RMM:  10    -0.380553425446E+03    0.50982E-04   -0.40375E-05  3970   0.834E-03    0.347E-02
RMM:  11    -0.380553420138E+03    0.53078E-05   -0.81256E-06  3901   0.364E-03    0.214E-02
RMM:  12    -0.380553420406E+03   -0.26745E-06   -0.30893E-06  2544   0.235E-03
  22 F= -.41559354E+03 E0= -.41525534E+03  d E =0.108595E-01
       N       E                     dE             d eps       ncg     rms          rms(c)
DAV:   1    -0.380388687032E+03    0.16473E+00   -0.75649E+01  3960   0.152E+01    0.294E+00
RMM:   2    -0.380945978952E+03   -0.55729E+00   -0.32220E+00  4016   0.205E+00    0.661E+00
RMM:   3    -0.381502396213E+03   -0.55642E+00   -0.45819E-01  3986   0.775E-01    0.106E+01
RMM:   4    -0.380554692592E+03    0.94770E+00   -0.14715E-01  4002   0.460E-01    0.225E+00
RMM:   5    -0.380525772968E+03    0.28920E-01   -0.29163E-02  3985   0.223E-01    0.137E+00
RMM:   6    -0.380518683789E+03    0.70892E-02   -0.13734E-02  3982   0.148E-01    0.107E+00
RMM:   7    -0.380517420030E+03    0.12638E-02   -0.11125E-02  3985   0.139E-01    0.954E-01
RMM:   8    -0.380519999339E+03   -0.25793E-02   -0.80681E-03  3985   0.115E-01    0.110E+00
RMM:   9    -0.380513932216E+03    0.60671E-02   -0.55002E-03  3983   0.966E-02    0.407E-01
RMM:  10    -0.380512550077E+03    0.13821E-02   -0.14226E-03  3984   0.488E-02    0.141E-01
RMM:  11    -0.380512494889E+03    0.55188E-04   -0.20300E-04  3989   0.179E-02    0.126E-01
RMM:  12    -0.380512451292E+03    0.43597E-04   -0.77604E-05  3983   0.115E-02    0.803E-02
RMM:  13    -0.380512437320E+03    0.13972E-04   -0.51450E-05  3973   0.949E-03    0.530E-02
RMM:  14    -0.380512451877E+03   -0.14557E-04   -0.27267E-05  3968   0.662E-03    0.510E-02
RMM:  15    -0.380512460051E+03   -0.81743E-05   -0.16426E-05  3954   0.534E-03    0.236E-02
RMM:  16    -0.380512466185E+03   -0.61336E-05   -0.58352E-06  3528   0.322E-03    0.117E-02
RMM:  17    -0.380512475317E+03   -0.91320E-05   -0.11578E-06  2209   0.148E-03    0.922E-03
RMM:  18    -0.380512493902E+03   -0.18585E-04   -0.10641E-06  2238   0.130E-03    0.592E-03
RMM:  19    -0.380512506130E+03   -0.12229E-04   -0.63209E-07  2202   0.938E-04    0.441E-03
RMM:  20    -0.380512514366E+03   -0.82353E-05   -0.34419E-07  2122   0.657E-04    0.429E-03
RMM:  21    -0.380512528566E+03   -0.14200E-04   -0.50370E-07  2166   0.688E-04    0.358E-03
RMM:  22    -0.380512540237E+03   -0.11672E-04   -0.45944E-07  1895   0.610E-04    0.252E-03
RMM:  23    -0.380512552082E+03   -0.11844E-04   -0.55317E-07  2073   0.639E-04    0.226E-03
RMM:  24    -0.380512563719E+03   -0.11637E-04   -0.75278E-07  2001   0.684E-04    0.100E-03
RMM:  25    -0.380512566666E+03   -0.29468E-05   -0.21118E-07  1173   0.410E-04    0.711E-04
RMM:  26    -0.380512571101E+03   -0.44354E-05   -0.20161E-07  1313   0.426E-04    0.828E-04
RMM:  27    -0.380512573982E+03   -0.28806E-05   -0.12814E-07  1072   0.382E-04    0.805E-04
RMM:  28    -0.380512576538E+03   -0.25565E-05   -0.11287E-07  1087   0.368E-04    0.513E-04
RMM:  29    -0.380512577913E+03   -0.13743E-05   -0.52640E-08   769   0.319E-04    0.652E-04
RMM:  30    -0.380512578861E+03   -0.94850E-06   -0.23549E-08   559   0.298E-04
  23 F= -.41554930E+03 E0= -.41521169E+03  d E =0.442377E-01
       N       E                     dE             d eps       ncg     rms          rms(c)
DAV:   1    -0.380512420310E+03    0.15760E-03   -0.46481E-01  3984   0.986E-01    0.235E-01
RMM:   2    -0.380514947502E+03   -0.25272E-02   -0.12490E-02  4004   0.159E-01    0.526E-01
RMM:   3    -0.380513992414E+03    0.95509E-03   -0.10318E-03  4024   0.399E-02    0.320E-01
RMM:   4    -0.380514519794E+03   -0.52738E-03   -0.84008E-04  3989   0.347E-02    0.417E-01
RMM:   5    -0.380514078321E+03    0.44147E-03   -0.69728E-04  3985   0.324E-02    0.405E-01
RMM:   6    -0.380513334935E+03    0.74339E-03   -0.38185E-04  3984   0.253E-02    0.182E-01
RMM:   7    -0.380513247560E+03    0.87375E-04   -0.18712E-04  3982   0.174E-02    0.119E-01
RMM:   8    -0.380513210156E+03    0.37403E-04   -0.85366E-05  3981   0.118E-02    0.800E-02
RMM:   9    -0.380513171122E+03    0.39034E-04   -0.28916E-05  3960   0.693E-03    0.312E-02
RMM:  10    -0.380513165779E+03    0.53436E-05   -0.56646E-06  3386   0.303E-03    0.120E-02
RMM:  11    -0.380513166270E+03   -0.49099E-06   -0.31433E-06  2484   0.241E-03
  24 F= -.41555145E+03 E0= -.41521366E+03  d E =-.215022E-02
       N       E                     dE             d eps       ncg     rms          rms(c)
DAV:   1    -0.380513128917E+03    0.36861E-04   -0.84686E-01  3960   0.125E+00    0.179E-01
RMM:   2    -0.380516748373E+03   -0.36195E-02   -0.14136E-02  3983   0.195E-01    0.589E-01
RMM:   3    -0.380514574351E+03    0.21740E-02   -0.99657E-04  4102   0.426E-02    0.254E-01
RMM:   4    -0.380515073966E+03   -0.49962E-03   -0.36128E-04  3993   0.242E-02    0.333E-01
RMM:   5    -0.380514636474E+03    0.43749E-03   -0.38941E-04  3981   0.247E-02    0.261E-01
RMM:   6    -0.380514442452E+03    0.19402E-03   -0.26527E-04  3986   0.207E-02    0.183E-01
RMM:   7    -0.380514370365E+03    0.72087E-04   -0.19681E-04  3980   0.176E-02    0.143E-01
RMM:   8    -0.380514265807E+03    0.10456E-03   -0.10113E-04  3976   0.129E-02    0.561E-02
RMM:   9    -0.380514248299E+03    0.17508E-04   -0.21184E-05  3962   0.590E-03    0.275E-02
RMM:  10    -0.380514244051E+03    0.42486E-05   -0.56344E-06  3526   0.308E-03    0.188E-02
RMM:  11    -0.380514241631E+03    0.24194E-05   -0.63377E-06  3836   0.326E-03    0.150E-02
RMM:  12    -0.380514240636E+03    0.99569E-06   -0.76929E-06  3940   0.351E-03
  25 F= -.41555484E+03 E0= -.41521678E+03  d E =-.338199E-02
       N       E                     dE             d eps       ncg     rms          rms(c)
DAV:   1    -0.380514364332E+03   -0.12270E-03   -0.71181E-01  3960   0.134E+00    0.234E-01
RMM:   2    -0.380518578595E+03   -0.42143E-02   -0.21727E-02  3995   0.202E-01    0.552E-01
RMM:   3    -0.380521293393E+03   -0.27148E-02   -0.29221E-03  4018   0.638E-02    0.820E-01
RMM:   4    -0.380515819518E+03    0.54739E-02   -0.12127E-03  3988   0.425E-02    0.200E-01
RMM:   5    -0.380515658084E+03    0.16143E-03   -0.35875E-04  3987   0.242E-02    0.142E-01
RMM:   6    -0.380515668993E+03   -0.10908E-04   -0.18375E-04  3994   0.175E-02    0.144E-01
RMM:   7    -0.380515610341E+03    0.58652E-04   -0.11799E-04  3984   0.141E-02    0.101E-01
RMM:   8    -0.380515590415E+03    0.19926E-04   -0.88641E-05  3983   0.122E-02    0.579E-02
RMM:   9    -0.380515569942E+03    0.20473E-04   -0.36410E-05  3977   0.807E-03    0.267E-02
RMM:  10    -0.380515565697E+03    0.42450E-05   -0.68966E-06  3798   0.346E-03    0.140E-02
RMM:  11    -0.380515565758E+03   -0.61213E-07   -0.16373E-06  2181   0.174E-03
  26 F= -.41555766E+03 E0= -.41521947E+03  d E =-.282165E-02
       N       E                     dE             d eps       ncg     rms          rms(c)
DAV:   1    -0.380515484125E+03    0.81572E-04   -0.18930E-03  4080   0.751E-02    0.186E-02
RMM:   2    -0.380515517943E+03   -0.33818E-04   -0.82463E-05  3993   0.117E-02    0.610E-02
RMM:   3    -0.380515518716E+03   -0.77285E-06   -0.18155E-05  3971   0.504E-03    0.607E-02
RMM:   4    -0.380515489759E+03    0.28957E-04   -0.63888E-06  3526   0.303E-03    0.201E-02
