       N       E                     dE             d eps       ncg     rms          rms(c)
DAV:   1     0.428638256070E+04    0.42864E+04   -0.26611E+05   784   0.127E+03
DAV:   2    -0.532471809089E+02   -0.43396E+04   -0.40035E+04   936   0.276E+02
DAV:   3    -0.384305515278E+03   -0.33106E+03   -0.29815E+03   912   0.699E+01
DAV:   4    -0.403033726229E+03   -0.18728E+02   -0.16907E+02  1064   0.146E+01
DAV:   5    -0.403572271488E+03   -0.53855E+00   -0.53235E+00   976   0.250E+00    0.841E+01
RMM:   6    -0.407464046815E+03   -0.38918E+01   -0.82291E+01   787   0.142E+01    0.738E+01
RMM:   7    -0.444961312223E+03   -0.37497E+02   -0.14707E+02   786   0.125E+01    0.695E+01
RMM:   8    -0.539066720881E+03   -0.94105E+02   -0.12193E+02   786   0.123E+01    0.920E+01
RMM:   9    -0.490843656157E+03    0.48223E+02   -0.95660E+01   784   0.101E+01    0.765E+01
RMM:  10    -0.398442207249E+03    0.92401E+02   -0.41666E+01   785   0.759E+00    0.427E+01
RMM:  11    -0.388826888955E+03    0.96153E+01   -0.33993E+01   787   0.704E+00    0.373E+01
RMM:  12    -0.379153838828E+03    0.96731E+01   -0.82276E+00   788   0.362E+00    0.216E+01
RMM:  13    -0.377247158822E+03    0.19067E+01   -0.26916E+00   788   0.208E+00    0.159E+01
RMM:  14    -0.376608483447E+03    0.63868E+00   -0.11940E+00   788   0.139E+00    0.127E+01
RMM:  15    -0.375897679673E+03    0.71080E+00   -0.42726E-01   788   0.859E-01    0.715E+00
RMM:  16    -0.375888056839E+03    0.96228E-02   -0.30920E-01   788   0.711E-01    0.722E+00
RMM:  17    -0.375775481869E+03    0.11257E+00   -0.37520E-01   790   0.828E-01    0.608E+00
RMM:  18    -0.375676296917E+03    0.99185E-01   -0.16941E-01   788   0.525E-01    0.499E+00
RMM:  19    -0.375627519233E+03    0.48778E-01   -0.11307E-01   790   0.420E-01    0.418E+00
RMM:  20    -0.375562696267E+03    0.64823E-01   -0.70343E-02   788   0.341E-01    0.247E+00
RMM:  21    -0.375555467946E+03    0.72283E-02   -0.53344E-02   789   0.299E-01    0.198E+00
RMM:  22    -0.375532999292E+03    0.22469E-01   -0.15385E-02   788   0.160E-01    0.112E+00
RMM:  23    -0.375537114407E+03   -0.41151E-02   -0.10440E-02   788   0.129E-01    0.162E+00
RMM:  24    -0.375532790413E+03    0.43240E-02   -0.38607E-03   790   0.808E-02    0.115E+00
RMM:  25    -0.375528401076E+03    0.43893E-02   -0.30930E-03   788   0.708E-02    0.796E-01
RMM:  26    -0.375524719915E+03    0.36812E-02   -0.25144E-03   789   0.619E-02    0.355E-01
RMM:  27    -0.375524235932E+03    0.48398E-03   -0.10291E-03   790   0.393E-02    0.206E-01
RMM:  28    -0.375524419002E+03   -0.18307E-03   -0.32814E-04   791   0.220E-02    0.184E-01
RMM:  29    -0.375524733163E+03   -0.31416E-03   -0.19279E-04   788   0.173E-02    0.174E-01
RMM:  30    -0.375524867644E+03   -0.13448E-03   -0.11641E-04   789   0.136E-02    0.131E-01
RMM:  31    -0.375525204853E+03   -0.33721E-03   -0.14918E-04   789   0.146E-02    0.849E-02
RMM:  32    -0.375525337436E+03   -0.13258E-03   -0.63968E-05   788   0.982E-03    0.428E-02
RMM:  33    -0.375525442259E+03   -0.10482E-03   -0.19829E-05   786   0.517E-03    0.243E-02
RMM:  34    -0.375525584293E+03   -0.14203E-03   -0.12941E-05   749   0.403E-03    0.243E-02
RMM:  35    -0.375525747505E+03   -0.16321E-03   -0.14013E-05   749   0.415E-03    0.209E-02
RMM:  36    -0.375525964756E+03   -0.21725E-03   -0.24013E-05   763   0.509E-03    0.261E-02
RMM:  37    -0.375526103642E+03   -0.13889E-03   -0.15571E-05   709   0.391E-03    0.333E-02
RMM:  38    -0.375526178162E+03   -0.74520E-04   -0.61160E-06   588   0.236E-03    0.265E-02
RMM:  39    -0.375526244735E+03   -0.66573E-04   -0.40057E-06   532   0.199E-03    0.184E-02
RMM:  40    -0.375526298892E+03   -0.54157E-04   -0.30937E-06   507   0.170E-03    0.127E-02
RMM:  41    -0.375526358136E+03   -0.59244E-04   -0.38328E-06   541   0.172E-03    0.842E-03
RMM:  42    -0.375526397063E+03   -0.38927E-04   -0.24952E-06   497   0.137E-03    0.622E-03
RMM:  43    -0.375526417393E+03   -0.20329E-04   -0.96592E-07   442   0.892E-04    0.467E-03
RMM:  44    -0.375526436267E+03   -0.18874E-04   -0.72176E-07   392   0.720E-04    0.354E-03
RMM:  45    -0.375526446956E+03   -0.10689E-04   -0.37035E-07   341   0.580E-04    0.269E-03
RMM:  46    -0.375526459283E+03   -0.12327E-04   -0.36848E-07   355   0.584E-04    0.226E-03
RMM:  47    -0.375526468108E+03   -0.88245E-05   -0.27441E-07   308   0.521E-04    0.204E-03
RMM:  48    -0.375526473677E+03   -0.55694E-05   -0.16399E-07   255   0.442E-04    0.423E-03
RMM:  49    -0.375526479122E+03   -0.54449E-05   -0.15282E-07   227   0.401E-04    0.256E-03
RMM:  50    -0.375526481715E+03   -0.25934E-05   -0.10837E-07   172   0.373E-04    0.400E-03
RMM:  51    -0.375526483183E+03   -0.14677E-05   -0.16533E-07   245   0.422E-04    0.741E-03
RMM:  52    -0.375526483542E+03   -0.35905E-06   -0.63590E-08   159   0.370E-04
   1 F= -.40974269E+03 E0= -.40922219E+03  d E =-.104100E+01
       N       E                     dE             d eps       ncg     rms          rms(c)
DAV:   1    -0.375524441294E+03    0.20419E-02   -0.12318E+00   800   0.185E+00    0.254E-01
RMM:   2    -0.375526638252E+03   -0.21970E-02   -0.18355E-02   790   0.188E-01    0.396E-01
RMM:   3    -0.375530615097E+03   -0.39768E-02   -0.17465E-03   793   0.500E-02    0.951E-01
RMM:   4    -0.375526544525E+03    0.40706E-02   -0.12516E-03   790   0.393E-02    0.413E-01
RMM:   5    -0.375525971368E+03    0.57316E-03   -0.62455E-04   788   0.312E-02    0.297E-01
RMM:   6    -0.375525970315E+03    0.10530E-05   -0.40896E-04   790   0.259E-02    0.269E-01
RMM:   7    -0.375525719143E+03    0.25117E-03   -0.23462E-04   788   0.196E-02    0.126E-01
RMM:   8    -0.375525694011E+03    0.25132E-04   -0.12242E-04   790   0.143E-02    0.854E-02
RMM:   9    -0.375525686619E+03    0.73924E-05   -0.55310E-05   788   0.958E-03    0.646E-02
RMM:  10    -0.375525656309E+03    0.30309E-04   -0.21210E-05   783   0.604E-03    0.228E-02
RMM:  11    -0.375525655574E+03    0.73542E-06   -0.36319E-06   535   0.253E-03
   2 F= -.40974235E+03 E0= -.40922209E+03  d E =-.104053E+01
       N       E                     dE             d eps       ncg     rms          rms(c)
DAV:   1    -0.375522432388E+03    0.32239E-02   -0.49220E+00   792   0.369E+00    0.516E-01
RMM:   2    -0.375530843121E+03   -0.84107E-02   -0.75567E-02   790   0.379E-01    0.663E-01
RMM:   3    -0.375537788820E+03   -0.69457E-02   -0.71355E-03   792   0.101E-01    0.135E+00
RMM:   4    -0.375530319747E+03    0.74691E-02   -0.27418E-03   792   0.596E-02    0.874E-01
RMM:   5    -0.375528720420E+03    0.15993E-02   -0.24799E-03   788   0.610E-02    0.641E-01
RMM:   6    -0.375528661799E+03    0.58621E-04   -0.16972E-03   788   0.518E-02    0.549E-01
RMM:   7    -0.375527443706E+03    0.12181E-02   -0.10167E-03   788   0.410E-02    0.243E-01
RMM:   8    -0.375527376918E+03    0.66788E-04   -0.50436E-04   790   0.291E-02    0.178E-01
RMM:   9    -0.375527319747E+03    0.57171E-04   -0.22704E-04   788   0.194E-02    0.133E-01
RMM:  10    -0.375527214332E+03    0.10542E-03   -0.86901E-05   789   0.123E-02    0.692E-02
RMM:  11    -0.375527200016E+03    0.14316E-04   -0.15925E-05   783   0.505E-03    0.423E-02
RMM:  12    -0.375527193688E+03    0.63277E-05   -0.93393E-06   778   0.386E-03    0.251E-02
RMM:  13    -0.375527193848E+03   -0.16027E-06   -0.45840E-06   603   0.289E-03
   3 F= -.40974290E+03 E0= -.40922210E+03  d E =-.104159E+01
       N       E                     dE             d eps       ncg     rms          rms(c)
DAV:   1    -0.375525081338E+03    0.21123E-02   -0.22902E+00   792   0.254E+00    0.468E-01
RMM:   2    -0.375533540601E+03   -0.84593E-02   -0.49195E-02   790   0.285E-01    0.868E-01
RMM:   3    -0.375540051394E+03   -0.65108E-02   -0.70739E-03   793   0.100E-01    0.153E+00
RMM:   4    -0.375527690776E+03    0.12361E-01   -0.22240E-03   791   0.551E-02    0.565E-01
RMM:   5    -0.375527270142E+03    0.42063E-03   -0.16159E-03   788   0.503E-02    0.491E-01
RMM:   6    -0.375528040466E+03   -0.77032E-03   -0.13636E-03   789   0.458E-02    0.565E-01
RMM:   7    -0.375526970778E+03    0.10697E-02   -0.10522E-03   788   0.419E-02    0.280E-01
RMM:   8    -0.375526642429E+03    0.32835E-03   -0.48092E-04   790   0.283E-02    0.148E-01
RMM:   9    -0.375526615171E+03    0.27259E-04   -0.19630E-04   788   0.175E-02    0.119E-01
RMM:  10    -0.375526528176E+03    0.86995E-04   -0.70748E-05   788   0.111E-02    0.471E-02
RMM:  11    -0.375526516823E+03    0.11353E-04   -0.16876E-05   785   0.536E-03    0.306E-02
RMM:  12    -0.375526517762E+03   -0.93920E-06   -0.60928E-06   691   0.312E-03
   4 F= -.40974354E+03 E0= -.40922313E+03  d E =-.104083E+01
       N       E                     dE             d eps       ncg     rms          rms(c)
DAV:   1    -0.375523184524E+03    0.33323E-02   -0.46745E+00   784   0.364E+00    0.622E-01
RMM:   2    -0.375536710543E+03   -0.13526E-01   -0.94966E-02   789   0.405E-01    0.109E+00
RMM:   3    -0.375532686188E+03    0.40244E-02   -0.95753E-03   791   0.124E-01    0.108E+00
RMM:   4    -0.375535216846E+03   -0.25307E-02   -0.37625E-03   791   0.706E-02    0.129E+00
RMM:   5    -0.375529868936E+03    0.53479E-02   -0.31795E-03   788   0.654E-02    0.871E-01
RMM:   6    -0.375529565728E+03    0.30321E-03   -0.28639E-03   788   0.657E-02    0.726E-01
RMM:   7    -0.375527295902E+03    0.22698E-02   -0.19215E-03   788   0.567E-02    0.324E-01
RMM:   8    -0.375526929236E+03    0.36667E-03   -0.81703E-04   789   0.367E-02    0.208E-01
RMM:   9    -0.375526832669E+03    0.96567E-04   -0.34102E-04   788   0.234E-02    0.152E-01
RMM:  10    -0.375526710168E+03    0.12250E-03   -0.11438E-04   788   0.141E-02    0.912E-02
RMM:  11    -0.375526682805E+03    0.27362E-04   -0.24788E-05   786   0.638E-03    0.578E-02
RMM:  12    -0.375526670624E+03    0.12181E-04   -0.13790E-05   783   0.468E-03    0.336E-02
RMM:  13    -0.375526671081E+03   -0.45615E-06   -0.87957E-06   769   0.383E-03
   5 F= -.40974201E+03 E0= -.40922142E+03  d E =-.104119E+01
       N       E                     dE             d eps       ncg     rms          rms(c)
DAV:   1    -0.375509428093E+03    0.17243E-01   -0.23455E+00   784   0.259E+00    0.404E-01
RMM:   2    -0.375520124872E+03   -0.10697E-01   -0.40138E-02   789   0.263E-01    0.116E+00
RMM:   3    -0.375514333548E+03    0.57913E-02   -0.18749E-03   791   0.548E-02    0.717E-01
RMM:   4    -0.375514441241E+03   -0.10769E-03   -0.18680E-03   788   0.520E-02    0.731E-01
RMM:   5    -0.375514978948E+03   -0.53771E-03   -0.25801E-03   788   0.629E-02    0.751E-01
RMM:   6    -0.375513420894E+03    0.15581E-02   -0.13334E-03   790   0.457E-02    0.535E-01
RMM:   7    -0.375512389722E+03    0.10312E-02   -0.67215E-04   788   0.325E-02    0.299E-01
RMM:   8    -0.375512124732E+03    0.26499E-03   -0.41572E-04   788   0.258E-02    0.165E-01
RMM:   9    -0.375512125725E+03   -0.99295E-06   -0.23095E-04   788   0.193E-02    0.134E-01
RMM:  10    -0.375512005640E+03    0.12009E-03   -0.82394E-05   788   0.113E-02    0.541E-02
RMM:  11    -0.375511993808E+03    0.11832E-04   -0.14840E-05   782   0.500E-03    0.351E-02
RMM:  12    -0.375511991710E+03    0.20977E-05   -0.43174E-06   577   0.267E-03    0.205E-02
RMM:  13    -0.375511997407E+03   -0.56971E-05   -0.54778E-06   665   0.309E-03    0.230E-02
RMM:  14    -0.375511999412E+03   -0.20046E-05   -0.34190E-06   518   0.260E-03    0.162E-02
RMM:  15    -0.375512000311E+03   -0.89927E-06   -0.12592E-06   426   0.161E-03
   6 F= -.40972765E+03 E0= -.40920664E+03  d E =-.104202E+01
       N       E                     dE             d eps       ncg     rms          rms(c)
DAV:   1    -0.375531908137E+03   -0.19909E-01   -0.48092E+00   784   0.369E+00    0.832E-01
RMM:   2    -0.375564335156E+03   -0.32427E-01   -0.10535E-01   790   0.421E-01    0.237E+00
RMM:   3    -0.375544404207E+03    0.19931E-01   -0.45670E-03   798   0.843E-02    0.137E+00
RMM:   4    -0.375553004359E+03   -0.86002E-02   -0.38135E-03   791   0.732E-02    0.182E+00
RMM:   5    -0.375561002227E+03   -0.79979E-02   -0.10470E-02   788   0.125E-01    0.223E+00
RMM:   6    -0.375547571490E+03    0.13431E-01   -0.79411E-03   789   0.110E-01    0.134E+00
RMM:   7    -0.375539644630E+03    0.79269E-02   -0.47670E-03   789   0.857E-02    0.666E-01
RMM:   8    -0.375538141789E+03    0.15028E-02   -0.20824E-03   788   0.574E-02    0.350E-01
RMM:   9    -0.375538147681E+03   -0.58919E-05   -0.95551E-04   788   0.391E-02    0.281E-01
RMM:  10    -0.375537646762E+03    0.50092E-03   -0.31904E-04   788   0.228E-02    0.891E-02
RMM:  11    -0.375537612400E+03    0.34362E-04   -0.57252E-05   787   0.953E-03    0.692E-02
RMM:  12    -0.375537613647E+03   -0.12474E-05   -0.21964E-05   787   0.578E-03    0.647E-02
RMM:  13    -0.375537614132E+03   -0.48510E-06   -0.22370E-05   784   0.603E-03    0.509E-02
RMM:  14    -0.375537606464E+03    0.76687E-05   -0.16765E-05   782   0.533E-03    0.296E-02
RMM:  15    -0.375537605711E+03    0.75308E-06   -0.65815E-06   716   0.337E-03
   7 F= -.40975436E+03 E0= -.40923434E+03  d E =-.104004E+01
       N       E                     dE             d eps       ncg     rms          rms(c)
DAV:   1    -0.375523086982E+03    0.14519E-01   -0.23656E+00   784   0.263E+00    0.565E-01
RMM:   2    -0.375534745617E+03   -0.11659E-01   -0.77027E-02   790   0.331E-01    0.113E+00
RMM:   3    -0.375539053464E+03   -0.43078E-02   -0.49712E-03   793   0.835E-02    0.136E+00
RMM:   4    -0.375536387425E+03    0.26660E-02   -0.48950E-03   793   0.795E-02    0.122E+00
RMM:   5    -0.375534359672E+03    0.20278E-02   -0.42186E-03   789   0.799E-02    0.119E+00
RMM:   6    -0.375530538805E+03    0.38209E-02   -0.28476E-03   789   0.669E-02    0.702E-01
RMM:   7    -0.375528360305E+03    0.21785E-02   -0.14092E-03   788   0.480E-02    0.298E-01
RMM:   8    -0.375528450936E+03   -0.90630E-04   -0.87088E-04   787   0.373E-02    0.289E-01
RMM:   9    -0.375528073855E+03    0.37708E-03   -0.41050E-04   786   0.255E-02    0.153E-01
RMM:  10    -0.375527955180E+03    0.11867E-03   -0.11415E-04   788   0.136E-02    0.848E-02
RMM:  11    -0.375527926038E+03    0.29142E-04   -0.24515E-05   786   0.613E-03    0.414E-02
RMM:  12    -0.375527924604E+03    0.14344E-05   -0.96285E-06   779   0.382E-03    0.333E-02
RMM:  13    -0.375527920389E+03    0.42146E-05   -0.58508E-06   680   0.317E-03    0.178E-02
RMM:  14    -0.375527919367E+03    0.10222E-05   -0.27564E-06   477   0.233E-03    0.114E-02
RMM:  15    -0.375527919654E+03   -0.28757E-06   -0.13285E-06   434   0.166E-03
   8 F= -.40974386E+03 E0= -.40922316E+03  d E =-.104141E+01
       N       E                     dE             d eps       ncg     rms          rms(c)
DAV:   1    -0.375518451538E+03    0.94678E-02   -0.47821E+00   784   0.350E+00    0.574E-01
RMM:   2    -0.375532550360E+03   -0.14099E-01   -0.97842E-02   790   0.400E-01    0.105E+00
RMM:   3    -0.375539240665E+03   -0.66903E-02   -0.73931E-03   792   0.104E-01    0.159E+00
RMM:   4    -0.375528465265E+03    0.10775E-01   -0.37951E-03   792   0.713E-02    0.875E-01
RMM:   5    -0.375527748762E+03    0.71650E-03   -0.39100E-03   789   0.767E-02    0.767E-01
RMM:   6    -0.375526585200E+03    0.11636E-02   -0.26958E-03   789   0.654E-02    0.634E-01
RMM:   7    -0.375525306143E+03    0.12791E-02   -0.12440E-03   788   0.448E-02    0.399E-01
RMM:   8    -0.375524856554E+03    0.44959E-03   -0.77163E-04   788   0.348E-02    0.249E-01
RMM:   9    -0.375524755905E+03    0.10065E-03   -0.42663E-04   788   0.260E-02    0.184E-01
RMM:  10    -0.375524498587E+03    0.25732E-03   -0.17062E-04   788   0.166E-02    0.639E-02
RMM:  11    -0.375524478298E+03    0.20288E-04   -0.29147E-05   789   0.689E-03    0.385E-02
RMM:  12    -0.375524479462E+03   -0.11638E-05   -0.83018E-06   760   0.356E-03    0.368E-02
RMM:  13    -0.375524476309E+03    0.31533E-05   -0.57787E-06   695   0.314E-03    0.202E-02
RMM:  14    -0.375524475009E+03    0.12993E-05   -0.25315E-06   462   0.224E-03    0.100E-02
RMM:  15    -0.375524475773E+03   -0.76337E-06   -0.11013E-06   413   0.148E-03
   9 F= -.40974094E+03 E0= -.40922061E+03  d E =-.104067E+01
       N       E                     dE             d eps       ncg     rms          rms(c)
DAV:   1    -0.375525563182E+03   -0.10882E-02   -0.23228E+00   784   0.246E+00    0.391E-01
RMM:   2    -0.375535851784E+03   -0.10289E-01   -0.50556E-02   789   0.275E-01    0.943E-01
RMM:   3    -0.375548128179E+03   -0.12276E-01   -0.65099E-03   791   0.917E-02    0.183E+00
RMM:   4    -0.375528829777E+03    0.19298E-01   -0.33575E-03   791   0.687E-02    0.454E-01
RMM:   5    -0.375528287779E+03    0.54200E-03   -0.14934E-03   788   0.483E-02    0.330E-01
RMM:   6    -0.375528353818E+03   -0.66039E-04   -0.73385E-04   790   0.341E-02    0.350E-01
RMM:   7    -0.375527992616E+03    0.36120E-03   -0.38840E-04   788   0.256E-02    0.229E-01
RMM:   8    -0.375527812467E+03    0.18015E-03   -0.24347E-04   790   0.201E-02    0.120E-01
RMM:   9    -0.375527850881E+03   -0.38414E-04   -0.15630E-04   788   0.158E-02    0.118E-01
RMM:  10    -0.375527759077E+03    0.91804E-04   -0.69384E-05   788   0.106E-02    0.515E-02
RMM:  11    -0.375527738745E+03    0.20332E-04   -0.13038E-05   784   0.478E-03    0.195E-02
RMM:  12    -0.375527739286E+03   -0.54078E-06   -0.32262E-06   516   0.235E-03
  10 F= -.40974346E+03 E0= -.40922280E+03  d E =-.104131E+01
       N       E                     dE             d eps       ncg     rms          rms(c)
DAV:   1    -0.375519907575E+03    0.78312E-02   -0.46561E+00   800   0.347E+00    0.588E-01
RMM:   2    -0.375542396914E+03   -0.22489E-01   -0.10802E-01   789   0.400E-01    0.144E+00
RMM:   3    -0.375561263240E+03   -0.18866E-01   -0.12776E-02   790   0.129E-01    0.248E+00
RMM:   4    -0.375528173087E+03    0.33090E-01   -0.67161E-03   787   0.983E-02    0.729E-01
RMM:   5    -0.375526952482E+03    0.12206E-02   -0.37784E-03   789   0.767E-02    0.553E-01
RMM:   6    -0.375526558198E+03    0.39428E-03   -0.20105E-03   789   0.568E-02    0.487E-01
RMM:   7    -0.375525780909E+03    0.77729E-03   -0.86419E-04   788   0.383E-02    0.336E-01
RMM:   8    -0.375525529135E+03    0.25177E-03   -0.50456E-04   788   0.285E-02    0.232E-01
RMM:   9    -0.375525522347E+03    0.67874E-05   -0.35922E-04   789   0.239E-02    0.183E-01
RMM:  10    -0.375525302031E+03    0.22032E-03   -0.18031E-04   788   0.172E-02    0.773E-02
RMM:  11    -0.375525261523E+03    0.40507E-04   -0.35950E-05   789   0.781E-03    0.329E-02
RMM:  12    -0.375525263006E+03   -0.14826E-05   -0.93324E-06   773   0.380E-03    0.370E-02
RMM:  13    -0.375525262942E+03    0.63708E-07   -0.62451E-06   712   0.320E-03
  11 F= -.40974191E+03 E0= -.40922153E+03  d E =-.104076E+01
       N       E                     dE             d eps       ncg     rms          rms(c)
DAV:   1    -0.375514859541E+03    0.10403E-01   -0.23264E+00   784   0.245E+00    0.504E-01
RMM:   2    -0.375524401818E+03   -0.95423E-02   -0.61052E-02   790   0.298E-01    0.872E-01
RMM:   3    -0.375526266885E+03   -0.18651E-02   -0.74343E-03   792   0.103E-01    0.122E+00
RMM:   4    -0.375521399475E+03    0.48674E-02   -0.25614E-03   790   0.595E-02    0.844E-01
RMM:   5    -0.375519795685E+03    0.16038E-02   -0.25864E-03   788   0.620E-02    0.677E-01
RMM:   6    -0.375519106079E+03    0.68961E-03   -0.15615E-03   790   0.494E-02    0.554E-01
RMM:   7    -0.375518105874E+03    0.10002E-02   -0.99874E-04   788   0.405E-02    0.301E-01
RMM:   8    -0.375517696926E+03    0.40895E-03   -0.47597E-04   788   0.279E-02    0.139E-01
RMM:   9    -0.375517722690E+03   -0.25765E-04   -0.23329E-04   788   0.192E-02    0.141E-01
RMM:  10    -0.375517617563E+03    0.10513E-03   -0.91575E-05   788   0.123E-02    0.771E-02
RMM:  11    -0.375517589295E+03    0.28268E-04   -0.19870E-05   785   0.574E-03    0.450E-02
RMM:  12    -0.375517580469E+03    0.88268E-05   -0.68378E-06   734   0.329E-03    0.224E-02
RMM:  13    -0.375517580685E+03   -0.21638E-06   -0.41121E-06   563   0.266E-03
  12 F= -.40973310E+03 E0= -.40921206E+03  d E =-.104209E+01
       N       E                     dE             d eps       ncg     rms          rms(c)
DAV:   1    -0.375526659470E+03   -0.90790E-02   -0.48252E+00   792   0.356E+00    0.706E-01
RMM:   2    -0.375539139285E+03   -0.12480E-01   -0.99388E-02   789   0.394E-01    0.963E-01
RMM:   3    -0.375557092552E+03   -0.17953E-01   -0.93633E-03   791   0.116E-01    0.198E+00
RMM:   4    -0.375551101745E+03    0.59908E-02   -0.97287E-03   790   0.108E-01    0.175E+00
RMM:   5    -0.375540299599E+03    0.10802E-01   -0.60435E-03   789   0.969E-02    0.117E+00
RMM:   6    -0.375536118098E+03    0.41815E-02   -0.36443E-03   788   0.768E-02    0.691E-01
RMM:   7    -0.375534282968E+03    0.18351E-02   -0.19184E-03   789   0.563E-02    0.355E-01
RMM:   8    -0.375533853284E+03    0.42968E-03   -0.90569E-04   788   0.379E-02    0.226E-01
RMM:   9    -0.375533692752E+03    0.16053E-03   -0.36669E-04   790   0.245E-02    0.171E-01
RMM:  10    -0.375533544913E+03    0.14784E-03   -0.12536E-04   788   0.144E-02    0.938E-02
RMM:  11    -0.375533514543E+03    0.30370E-04   -0.34894E-05   787   0.748E-03    0.573E-02
RMM:  12    -0.375533508196E+03    0.63473E-05   -0.15266E-05   783   0.494E-03    0.417E-02
RMM:  13    -0.375533501880E+03    0.63160E-05   -0.89700E-06   773   0.382E-03    0.236E-02
RMM:  14    -0.375533500160E+03    0.17200E-05   -0.37745E-06   540   0.262E-03    0.159E-02
RMM:  15    -0.375533499323E+03    0.83710E-06   -0.13624E-06   414   0.170E-03
  13 F= -.40975040E+03 E0= -.40923041E+03  d E =-.104000E+01
