 vasp.5.4.4.18Apr17-6-g9f103f2a35 (build Nov 06 2023 00:46:14) complex          
  
 executed on             LinuxIFC date 2024.12.20  14:36:02
 running on   64 total cores
 distrk:  each k-point on   64 cores,    1 groups
 distr:  one band on NCORES_PER_BAND=   4 cores,   16 groups


--------------------------------------------------------------------------------------------------------


 INCAR:
 POTCAR:    PAW_PBE Pt 04Feb2005                  
 POTCAR:    PAW_PBE Pt 04Feb2005                  
   VRHFIN =Pt: s1d9                                                             
   LEXCH  = PE                                                                  
   EATOM  =   729.1176 eV,   53.5886 Ry                                         
                                                                                
   TITEL  = PAW_PBE Pt 04Feb2005                                                
   LULTRA =        F    use ultrasoft PP ?                                      
   IUNSCR =        1    unscreen: 0-lin 1-nonlin 2-no                           
   RPACOR =    2.330    partial core radius                                     
   POMASS =  195.080; ZVAL   =   10.000    mass and valenz                      
   RCORE  =    2.600    outmost cutoff radius                                   
   RWIGS  =    2.750; RWIGS  =    1.455    wigner-seitz radius (au A)           
   ENMAX  =  230.283; ENMIN  =  172.712 eV                                      
   ICORE  =        3    local potential                                         
   LCOR   =        T    correct aug charges                                     
   LPAW   =        T    paw PP                                                  
   EAUG   =  358.966                                                            
   DEXC   =    0.000                                                            
   RMAX   =    2.658    core radius for proj-oper                               
   RAUG   =    1.300    factor for augmentation sphere                          
   RDEP   =    2.761    radius for radial grids                                 
   RDEPT  =    2.203    core radius for aug-charge                              
                                                                                
   Atomic configuration                                                         
   16 entries                                                                   
     n  l   j            E        occ.                                          
     1  0  0.50    -78401.1885   2.0000                                         
     2  0  0.50    -13770.7750   2.0000                                         
     2  1  1.50    -11931.0468   6.0000                                         
     3  0  0.50     -3234.7234   2.0000                                         
     3  1  1.50     -2699.2216   6.0000                                         
     3  2  2.50     -2119.5714  10.0000                                         
     4  0  0.50      -695.1528   2.0000                                         
     4  1  1.50      -519.6034   6.0000                                         
     4  2  2.50      -306.6786  10.0000                                         
     4  3  3.50       -70.1041  14.0000                                         
     5  0  0.50      -101.7747   2.0000                                         
     5  1  1.50       -55.9873   6.0000                                         
     5  2  2.50        -6.1423   9.0000                                         
     6  0  0.50        -5.6573   1.0000                                         
     6  1  1.50        -6.8029   0.0000                                         
     5  3  2.50        -1.3606   0.0000                                         
   Description                                                                  
     l       E           TYP  RCUT    TYP  RCUT                                 
     2     -6.1423404     23  2.500                                             
     2     -7.5029230     23  2.500                                             
     0     -5.6573207     23  2.500                                             
     0      0.7416693     23  2.500                                             
     1     -2.7211652     23  2.600                                             
     1     20.4087390     23  2.600                                             
     3     -1.3605826     23  2.500                                             
  local pseudopotential read in
  partial core-charges read in
  partial kinetic energy density read in
  atomic valenz-charges read in
  non local Contribution for L=           2  read in
    real space projection operators read in
  non local Contribution for L=           2  read in
    real space projection operators read in
  non local Contribution for L=           0  read in
    real space projection operators read in
  non local Contribution for L=           0  read in
    real space projection operators read in
  non local Contribution for L=           1  read in
    real space projection operators read in
  non local Contribution for L=           1  read in
    real space projection operators read in
    PAW grid and wavefunctions read in
 
   number of l-projection  operators is LMAX  =           6
   number of lm-projection operators is LMMAX =          18
 

 ----------------------------------------------------------------------------- 
|                                                                             |
|  ADVICE TO THIS USER RUNNING 'VASP/VAMP'   (HEAR YOUR MASTER'S VOICE ...):  |
|                                                                             |
|      You have a (more or less) 'small supercell' and for smaller cells      |
|      it is recommended  to use the reciprocal-space projection scheme!      |
|      The real space optimization is not  efficient for small cells and it   |
|      is also less accurate ...                                              |
|      Therefore set LREAL=.FALSE. in the  INCAR file                         |
|                                                                             |
 ----------------------------------------------------------------------------- 

 Optimization of the real space projectors (new method)

 maximal supplied QI-value         = 14.36
 optimisation between [QCUT,QGAM] = [ 12.49, 31.31] = [ 43.72,274.50] Ry 
 Optimized for a Real-space Cutoff    1.36 Angstroem

   l    n(q)    QCUT    max X(q) W(low)/X(q) W(high)/X(q)  e(spline) 
   2     12    12.495    66.195    0.14E-03    0.86E-04    0.27E-05
   2     12    12.495    64.643    0.15E-03    0.87E-04    0.27E-05
   0     13    12.495    95.520    0.56E-04    0.19E-04    0.42E-05
   0     13    12.495    63.403    0.53E-04    0.19E-04    0.41E-05
   1     12    12.495    19.961    0.33E-03    0.20E-03    0.59E-04
   1     12    12.495    13.289    0.27E-03    0.16E-03    0.48E-04
  PAW_PBE Pt 04Feb2005                  :
 energy of atom  1       EATOM= -729.1176
 kinetic energy error for atom=    0.0012 (will be added to EATOM!!)
 
 
 POSCAR: Pt                                      
  positions in cartesian coordinates
  No initial velocities read in
 exchange correlation table for  LEXCH =        8
   RHO(1)=    0.500       N(1)  =     2000
   RHO(2)=  100.500       N(2)  =     4000

 VTST: version 3.2, (02/03/18)

 CHAIN: initializing optimizer
 
 OPT: Using VASP QUASI-newton optimizer
 CHAIN: Read ICHAIN            0
 
 POSCAR: Pt                                      
  positions in cartesian coordinates
  No initial velocities read in
 


--------------------------------------------------------------------------------------------------------


 ion  position               nearest neighbor table
   1  0.000  0.000  0.000-   2 2.77   2 2.77   2 2.77   2 2.77   2 2.77   2 2.77   2 2.77   2 2.77

   2  0.500  0.500  0.500-   1 2.77   1 2.77   1 2.77   1 2.77   1 2.77   1 2.77   1 2.77   1 2.77

 
  LATTYP: Found a simple tetragonal cell.
 ALAT       =     2.7718585823
 C/A-ratio  =     1.4142135624
  
  Lattice vectors:
  
 A1 = (   2.7718585823,   0.0000000000,   0.0000000000)
 A2 = (   0.0000000000,   2.7718585823,   0.0000000000)
 A3 = (   0.0000000000,   0.0000000000,   3.9200000000)


Analysis of symmetry for initial positions (statically):
=====================================================================
 Subroutine PRICEL returns following result:
 
  LATTYP: Found a face centered cubic cell.
 ALAT       =     3.9200000000
  
  Lattice vectors:
  
 A1 = (  -1.3859292911,   1.3859292911,   1.9600000000)
 A2 = (   1.3859292911,   1.3859292911,   1.9600000000)
 A3 = (   0.0000000000,   2.7718585823,   0.0000000000)
 
   2 primitive cells build up your supercell.
 

 Routine SETGRP: Setting up the symmetry group for a 
 simple tetragonal supercell.


 Subroutine GETGRP returns: Found 16 space group operations
 (whereof 16 operations were pure point group operations)
 out of a pool of 16 trial point group operations.


The static configuration has the point symmetry D_4h.


Analysis of symmetry for dynamics (positions and initial velocities):
=====================================================================
 Subroutine PRICEL returns following result:
 
  LATTYP: Found a face centered cubic cell.
 ALAT       =     3.9200000000
  
  Lattice vectors:
  
 A1 = (  -1.3859292911,   1.3859292911,   1.9600000000)
 A2 = (   1.3859292911,   1.3859292911,   1.9600000000)
 A3 = (   0.0000000000,   2.7718585823,   0.0000000000)
 
   2 primitive cells build up your supercell.
 

 Routine SETGRP: Setting up the symmetry group for a 
 simple tetragonal supercell.


 Subroutine GETGRP returns: Found 16 space group operations
 (whereof 16 operations were pure point group operations)
 out of a pool of 16 trial point group operations.


The dynamic configuration has the point symmetry D_4h.


 Subroutine INISYM returns: Found 16 space group operations
 (whereof 16 operations are pure point group operations),
 and found     2 'primitive' translations

 
 
 KPOINTS: K-Spacing Value to Generate K-Mesh: 0.02

Automatic generation of k-mesh.
Space group operators:
 irot       det(A)        alpha          n_x          n_y          n_z        tau_x        tau_y        tau_z
    1     1.000000     0.000000     1.000000     0.000000     0.000000     0.000000     0.000000     0.000000
    2    -1.000000     0.000000     1.000000     0.000000     0.000000     0.000000     0.000000     0.000000
    3     1.000000    90.000000     0.000000     0.000000    -1.000000     0.000000     0.000000     0.000000
    4    -1.000000    90.000000     0.000000     0.000000    -1.000000     0.000000     0.000000     0.000000
    5     1.000000   180.000000     0.000000     0.000000     1.000000     0.000000     0.000000     0.000000
    6    -1.000000   180.000000     0.000000     0.000000     1.000000     0.000000     0.000000     0.000000
    7     1.000000    90.000000     0.000000     0.000000     1.000000     0.000000     0.000000     0.000000
    8    -1.000000    90.000000     0.000000     0.000000     1.000000     0.000000     0.000000     0.000000
    9     1.000000   180.000000     0.000000     1.000000     0.000000     0.000000     0.000000     0.000000
   10    -1.000000   180.000000     0.000000     1.000000     0.000000     0.000000     0.000000     0.000000
   11     1.000000   180.000000     0.707107     0.707107     0.000000     0.000000     0.000000     0.000000
   12    -1.000000   180.000000     0.707107     0.707107     0.000000     0.000000     0.000000     0.000000
   13     1.000000   180.000000     1.000000     0.000000     0.000000     0.000000     0.000000     0.000000
   14    -1.000000   180.000000     1.000000     0.000000     0.000000     0.000000     0.000000     0.000000
   15     1.000000   180.000000     0.707107    -0.707107     0.000000     0.000000     0.000000     0.000000
   16    -1.000000   180.000000     0.707107    -0.707107     0.000000     0.000000     0.000000     0.000000
 
 Subroutine IBZKPT returns following result:
 ===========================================
 
 Found    385 irreducible k-points:
 
 Following reciprocal coordinates:
            Coordinates               Weight
  0.000000  0.000000  0.000000      1.000000
  0.055556  0.000000  0.000000      4.000000
  0.111111  0.000000  0.000000      4.000000
  0.166667  0.000000  0.000000      4.000000
  0.222222  0.000000  0.000000      4.000000
  0.277778  0.000000  0.000000      4.000000
  0.333333  0.000000  0.000000      4.000000
  0.388889  0.000000  0.000000      4.000000
  0.444444  0.000000  0.000000      4.000000
  0.500000  0.000000  0.000000      2.000000
  0.055556  0.055556  0.000000      4.000000
  0.111111  0.055556  0.000000      8.000000
  0.166667  0.055556  0.000000      8.000000
  0.222222  0.055556  0.000000      8.000000
  0.277778  0.055556  0.000000      8.000000
  0.333333  0.055556  0.000000      8.000000
  0.388889  0.055556  0.000000      8.000000
  0.444444  0.055556  0.000000      8.000000
  0.500000  0.055556  0.000000      4.000000
  0.111111  0.111111  0.000000      4.000000
  0.166667  0.111111  0.000000      8.000000
  0.222222  0.111111  0.000000      8.000000
  0.277778  0.111111  0.000000      8.000000
  0.333333  0.111111  0.000000      8.000000
  0.388889  0.111111  0.000000      8.000000
  0.444444  0.111111  0.000000      8.000000
  0.500000  0.111111  0.000000      4.000000
  0.166667  0.166667  0.000000      4.000000
  0.222222  0.166667  0.000000      8.000000
  0.277778  0.166667  0.000000      8.000000
  0.333333  0.166667  0.000000      8.000000
  0.388889  0.166667  0.000000      8.000000
  0.444444  0.166667  0.000000      8.000000
  0.500000  0.166667  0.000000      4.000000
  0.222222  0.222222  0.000000      4.000000
  0.277778  0.222222  0.000000      8.000000
  0.333333  0.222222  0.000000      8.000000
  0.388889  0.222222  0.000000      8.000000
  0.444444  0.222222  0.000000      8.000000
  0.500000  0.222222  0.000000      4.000000
  0.277778  0.277778  0.000000      4.000000
  0.333333  0.277778  0.000000      8.000000
  0.388889  0.277778  0.000000      8.000000
  0.444444  0.277778  0.000000      8.000000
  0.500000  0.277778  0.000000      4.000000
  0.333333  0.333333  0.000000      4.000000
  0.388889  0.333333  0.000000      8.000000
  0.444444  0.333333  0.000000      8.000000
  0.500000  0.333333  0.000000      4.000000
  0.388889  0.388889  0.000000      4.000000
  0.444444  0.388889  0.000000      8.000000
  0.500000  0.388889  0.000000      4.000000
  0.444444  0.444444  0.000000      4.000000
  0.500000  0.444444  0.000000      4.000000
  0.500000  0.500000  0.000000      1.000000
  0.000000  0.000000  0.076923      2.000000
  0.055556  0.000000  0.076923      8.000000
  0.111111  0.000000  0.076923      8.000000
  0.166667  0.000000  0.076923      8.000000
  0.222222  0.000000  0.076923      8.000000
  0.277778  0.000000  0.076923      8.000000
  0.333333  0.000000  0.076923      8.000000
  0.388889  0.000000  0.076923      8.000000
  0.444444  0.000000  0.076923      8.000000
  0.500000  0.000000  0.076923      4.000000
  0.055556  0.055556  0.076923      8.000000
  0.111111  0.055556  0.076923     16.000000
  0.166667  0.055556  0.076923     16.000000
  0.222222  0.055556  0.076923     16.000000
  0.277778  0.055556  0.076923     16.000000
  0.333333  0.055556  0.076923     16.000000
  0.388889  0.055556  0.076923     16.000000
  0.444444  0.055556  0.076923     16.000000
  0.500000  0.055556  0.076923      8.000000
  0.111111  0.111111  0.076923      8.000000
  0.166667  0.111111  0.076923     16.000000
  0.222222  0.111111  0.076923     16.000000
  0.277778  0.111111  0.076923     16.000000
  0.333333  0.111111  0.076923     16.000000
  0.388889  0.111111  0.076923     16.000000
  0.444444  0.111111  0.076923     16.000000
  0.500000  0.111111  0.076923      8.000000
  0.166667  0.166667  0.076923      8.000000
  0.222222  0.166667  0.076923     16.000000
  0.277778  0.166667  0.076923     16.000000
  0.333333  0.166667  0.076923     16.000000
  0.388889  0.166667  0.076923     16.000000
  0.444444  0.166667  0.076923     16.000000
  0.500000  0.166667  0.076923      8.000000
  0.222222  0.222222  0.076923      8.000000
  0.277778  0.222222  0.076923     16.000000
  0.333333  0.222222  0.076923     16.000000
  0.388889  0.222222  0.076923     16.000000
  0.444444  0.222222  0.076923     16.000000
  0.500000  0.222222  0.076923      8.000000
  0.277778  0.277778  0.076923      8.000000
  0.333333  0.277778  0.076923     16.000000
  0.388889  0.277778  0.076923     16.000000
  0.444444  0.277778  0.076923     16.000000
  0.500000  0.277778  0.076923      8.000000
  0.333333  0.333333  0.076923      8.000000
  0.388889  0.333333  0.076923     16.000000
  0.444444  0.333333  0.076923     16.000000
  0.500000  0.333333  0.076923      8.000000
  0.388889  0.388889  0.076923      8.000000
  0.444444  0.388889  0.076923     16.000000
  0.500000  0.388889  0.076923      8.000000
  0.444444  0.444444  0.076923      8.000000
  0.500000  0.444444  0.076923      8.000000
  0.500000  0.500000  0.076923      2.000000
  0.000000  0.000000  0.153846      2.000000
  0.055556  0.000000  0.153846      8.000000
  0.111111  0.000000  0.153846      8.000000
  0.166667  0.000000  0.153846      8.000000
  0.222222  0.000000  0.153846      8.000000
  0.277778  0.000000  0.153846      8.000000
  0.333333  0.000000  0.153846      8.000000
  0.388889  0.000000  0.153846      8.000000
  0.444444  0.000000  0.153846      8.000000
  0.500000  0.000000  0.153846      4.000000
  0.055556  0.055556  0.153846      8.000000
  0.111111  0.055556  0.153846     16.000000
  0.166667  0.055556  0.153846     16.000000
  0.222222  0.055556  0.153846     16.000000
  0.277778  0.055556  0.153846     16.000000
  0.333333  0.055556  0.153846     16.000000
  0.388889  0.055556  0.153846     16.000000
  0.444444  0.055556  0.153846     16.000000
  0.500000  0.055556  0.153846      8.000000
  0.111111  0.111111  0.153846      8.000000
  0.166667  0.111111  0.153846     16.000000
  0.222222  0.111111  0.153846     16.000000
  0.277778  0.111111  0.153846     16.000000
  0.333333  0.111111  0.153846     16.000000
  0.388889  0.111111  0.153846     16.000000
  0.444444  0.111111  0.153846     16.000000
  0.500000  0.111111  0.153846      8.000000
  0.166667  0.166667  0.153846      8.000000
  0.222222  0.166667  0.153846     16.000000
  0.277778  0.166667  0.153846     16.000000
  0.333333  0.166667  0.153846     16.000000
  0.388889  0.166667  0.153846     16.000000
  0.444444  0.166667  0.153846     16.000000
  0.500000  0.166667  0.153846      8.000000
  0.222222  0.222222  0.153846      8.000000
  0.277778  0.222222  0.153846     16.000000
  0.333333  0.222222  0.153846     16.000000
  0.388889  0.222222  0.153846     16.000000
  0.444444  0.222222  0.153846     16.000000
  0.500000  0.222222  0.153846      8.000000
  0.277778  0.277778  0.153846      8.000000
  0.333333  0.277778  0.153846     16.000000
  0.388889  0.277778  0.153846     16.000000
  0.444444  0.277778  0.153846     16.000000
  0.500000  0.277778  0.153846      8.000000
  0.333333  0.333333  0.153846      8.000000
  0.388889  0.333333  0.153846     16.000000
  0.444444  0.333333  0.153846     16.000000
  0.500000  0.333333  0.153846      8.000000
  0.388889  0.388889  0.153846      8.000000
  0.444444  0.388889  0.153846     16.000000
  0.500000  0.388889  0.153846      8.000000
  0.444444  0.444444  0.153846      8.000000
  0.500000  0.444444  0.153846      8.000000
  0.500000  0.500000  0.153846      2.000000
  0.000000  0.000000  0.230769      2.000000
  0.055556  0.000000  0.230769      8.000000
  0.111111  0.000000  0.230769      8.000000
  0.166667  0.000000  0.230769      8.000000
  0.222222  0.000000  0.230769      8.000000
  0.277778  0.000000  0.230769      8.000000
  0.333333  0.000000  0.230769      8.000000
  0.388889  0.000000  0.230769      8.000000
  0.444444  0.000000  0.230769      8.000000
  0.500000  0.000000  0.230769      4.000000
  0.055556  0.055556  0.230769      8.000000
  0.111111  0.055556  0.230769     16.000000
  0.166667  0.055556  0.230769     16.000000
  0.222222  0.055556  0.230769     16.000000
  0.277778  0.055556  0.230769     16.000000
  0.333333  0.055556  0.230769     16.000000
  0.388889  0.055556  0.230769     16.000000
  0.444444  0.055556  0.230769     16.000000
  0.500000  0.055556  0.230769      8.000000
  0.111111  0.111111  0.230769      8.000000
  0.166667  0.111111  0.230769     16.000000
  0.222222  0.111111  0.230769     16.000000
  0.277778  0.111111  0.230769     16.000000
  0.333333  0.111111  0.230769     16.000000
  0.388889  0.111111  0.230769     16.000000
  0.444444  0.111111  0.230769     16.000000
  0.500000  0.111111  0.230769      8.000000
  0.166667  0.166667  0.230769      8.000000
  0.222222  0.166667  0.230769     16.000000
  0.277778  0.166667  0.230769     16.000000
  0.333333  0.166667  0.230769     16.000000
  0.388889  0.166667  0.230769     16.000000
  0.444444  0.166667  0.230769     16.000000
  0.500000  0.166667  0.230769      8.000000
  0.222222  0.222222  0.230769      8.000000
  0.277778  0.222222  0.230769     16.000000
  0.333333  0.222222  0.230769     16.000000
  0.388889  0.222222  0.230769     16.000000
  0.444444  0.222222  0.230769     16.000000
  0.500000  0.222222  0.230769      8.000000
  0.277778  0.277778  0.230769      8.000000
  0.333333  0.277778  0.230769     16.000000
  0.388889  0.277778  0.230769     16.000000
  0.444444  0.277778  0.230769     16.000000
  0.500000  0.277778  0.230769      8.000000
  0.333333  0.333333  0.230769      8.000000
  0.388889  0.333333  0.230769     16.000000
  0.444444  0.333333  0.230769     16.000000
  0.500000  0.333333  0.230769      8.000000
  0.388889  0.388889  0.230769      8.000000
  0.444444  0.388889  0.230769     16.000000
  0.500000  0.388889  0.230769      8.000000
  0.444444  0.444444  0.230769      8.000000
  0.500000  0.444444  0.230769      8.000000
  0.500000  0.500000  0.230769      2.000000
  0.000000  0.000000  0.307692      2.000000
  0.055556  0.000000  0.307692      8.000000
  0.111111  0.000000  0.307692      8.000000
  0.166667  0.000000  0.307692      8.000000
  0.222222  0.000000  0.307692      8.000000
  0.277778  0.000000  0.307692      8.000000
  0.333333  0.000000  0.307692      8.000000
  0.388889  0.000000  0.307692      8.000000
  0.444444  0.000000  0.307692      8.000000
  0.500000  0.000000  0.307692      4.000000
  0.055556  0.055556  0.307692      8.000000
  0.111111  0.055556  0.307692     16.000000
  0.166667  0.055556  0.307692     16.000000
  0.222222  0.055556  0.307692     16.000000
  0.277778  0.055556  0.307692     16.000000
  0.333333  0.055556  0.307692     16.000000
  0.388889  0.055556  0.307692     16.000000
  0.444444  0.055556  0.307692     16.000000
  0.500000  0.055556  0.307692      8.000000
  0.111111  0.111111  0.307692      8.000000
  0.166667  0.111111  0.307692     16.000000
  0.222222  0.111111  0.307692     16.000000
  0.277778  0.111111  0.307692     16.000000
  0.333333  0.111111  0.307692     16.000000
  0.388889  0.111111  0.307692     16.000000
  0.444444  0.111111  0.307692     16.000000
  0.500000  0.111111  0.307692      8.000000
  0.166667  0.166667  0.307692      8.000000
  0.222222  0.166667  0.307692     16.000000
  0.277778  0.166667  0.307692     16.000000
  0.333333  0.166667  0.307692     16.000000
  0.388889  0.166667  0.307692     16.000000
  0.444444  0.166667  0.307692     16.000000
  0.500000  0.166667  0.307692      8.000000
  0.222222  0.222222  0.307692      8.000000
  0.277778  0.222222  0.307692     16.000000
  0.333333  0.222222  0.307692     16.000000
  0.388889  0.222222  0.307692     16.000000
  0.444444  0.222222  0.307692     16.000000
  0.500000  0.222222  0.307692      8.000000
  0.277778  0.277778  0.307692      8.000000
  0.333333  0.277778  0.307692     16.000000
  0.388889  0.277778  0.307692     16.000000
  0.444444  0.277778  0.307692     16.000000
  0.500000  0.277778  0.307692      8.000000
  0.333333  0.333333  0.307692      8.000000
  0.388889  0.333333  0.307692     16.000000
  0.444444  0.333333  0.307692     16.000000
  0.500000  0.333333  0.307692      8.000000
  0.388889  0.388889  0.307692      8.000000
  0.444444  0.388889  0.307692     16.000000
  0.500000  0.388889  0.307692      8.000000
  0.444444  0.444444  0.307692      8.000000
  0.500000  0.444444  0.307692      8.000000
  0.500000  0.500000  0.307692      2.000000
  0.000000  0.000000  0.384615      2.000000
  0.055556  0.000000  0.384615      8.000000
  0.111111  0.000000  0.384615      8.000000
  0.166667  0.000000  0.384615      8.000000
  0.222222  0.000000  0.384615      8.000000
  0.277778  0.000000  0.384615      8.000000
  0.333333  0.000000  0.384615      8.000000
  0.388889  0.000000  0.384615      8.000000
  0.444444  0.000000  0.384615      8.000000
  0.500000  0.000000  0.384615      4.000000
  0.055556  0.055556  0.384615      8.000000
  0.111111  0.055556  0.384615     16.000000
  0.166667  0.055556  0.384615     16.000000
  0.222222  0.055556  0.384615     16.000000
  0.277778  0.055556  0.384615     16.000000
  0.333333  0.055556  0.384615     16.000000
  0.388889  0.055556  0.384615     16.000000
  0.444444  0.055556  0.384615     16.000000
  0.500000  0.055556  0.384615      8.000000
  0.111111  0.111111  0.384615      8.000000
  0.166667  0.111111  0.384615     16.000000
  0.222222  0.111111  0.384615     16.000000
  0.277778  0.111111  0.384615     16.000000
  0.333333  0.111111  0.384615     16.000000
  0.388889  0.111111  0.384615     16.000000
  0.444444  0.111111  0.384615     16.000000
  0.500000  0.111111  0.384615      8.000000
  0.166667  0.166667  0.384615      8.000000
  0.222222  0.166667  0.384615     16.000000
  0.277778  0.166667  0.384615     16.000000
  0.333333  0.166667  0.384615     16.000000
  0.388889  0.166667  0.384615     16.000000
  0.444444  0.166667  0.384615     16.000000
  0.500000  0.166667  0.384615      8.000000
  0.222222  0.222222  0.384615      8.000000
  0.277778  0.222222  0.384615     16.000000
  0.333333  0.222222  0.384615     16.000000
  0.388889  0.222222  0.384615     16.000000
  0.444444  0.222222  0.384615     16.000000
  0.500000  0.222222  0.384615      8.000000
  0.277778  0.277778  0.384615      8.000000
  0.333333  0.277778  0.384615     16.000000
  0.388889  0.277778  0.384615     16.000000
  0.444444  0.277778  0.384615     16.000000
  0.500000  0.277778  0.384615      8.000000
  0.333333  0.333333  0.384615      8.000000
  0.388889  0.333333  0.384615     16.000000
  0.444444  0.333333  0.384615     16.000000
  0.500000  0.333333  0.384615      8.000000
  0.388889  0.388889  0.384615      8.000000
  0.444444  0.388889  0.384615     16.000000
  0.500000  0.388889  0.384615      8.000000
  0.444444  0.444444  0.384615      8.000000
  0.500000  0.444444  0.384615      8.000000
  0.500000  0.500000  0.384615      2.000000
  0.000000  0.000000  0.461538      2.000000
  0.055556  0.000000  0.461538      8.000000
  0.111111  0.000000  0.461538      8.000000
  0.166667  0.000000  0.461538      8.000000
  0.222222  0.000000  0.461538      8.000000
  0.277778  0.000000  0.461538      8.000000
  0.333333  0.000000  0.461538      8.000000
  0.388889  0.000000  0.461538      8.000000
  0.444444  0.000000  0.461538      8.000000
  0.500000  0.000000  0.461538      4.000000
  0.055556  0.055556  0.461538      8.000000
  0.111111  0.055556  0.461538     16.000000
  0.166667  0.055556  0.461538     16.000000
  0.222222  0.055556  0.461538     16.000000
  0.277778  0.055556  0.461538     16.000000
  0.333333  0.055556  0.461538     16.000000
  0.388889  0.055556  0.461538     16.000000
  0.444444  0.055556  0.461538     16.000000
  0.500000  0.055556  0.461538      8.000000
  0.111111  0.111111  0.461538      8.000000
  0.166667  0.111111  0.461538     16.000000
  0.222222  0.111111  0.461538     16.000000
  0.277778  0.111111  0.461538     16.000000
  0.333333  0.111111  0.461538     16.000000
  0.388889  0.111111  0.461538     16.000000
  0.444444  0.111111  0.461538     16.000000
  0.500000  0.111111  0.461538      8.000000
  0.166667  0.166667  0.461538      8.000000
  0.222222  0.166667  0.461538     16.000000
  0.277778  0.166667  0.461538     16.000000
  0.333333  0.166667  0.461538     16.000000
  0.388889  0.166667  0.461538     16.000000
  0.444444  0.166667  0.461538     16.000000
  0.500000  0.166667  0.461538      8.000000
  0.222222  0.222222  0.461538      8.000000
  0.277778  0.222222  0.461538     16.000000
  0.333333  0.222222  0.461538     16.000000
  0.388889  0.222222  0.461538     16.000000
  0.444444  0.222222  0.461538     16.000000
  0.500000  0.222222  0.461538      8.000000
  0.277778  0.277778  0.461538      8.000000
  0.333333  0.277778  0.461538     16.000000
  0.388889  0.277778  0.461538     16.000000
  0.444444  0.277778  0.461538     16.000000
  0.500000  0.277778  0.461538      8.000000
  0.333333  0.333333  0.461538      8.000000
  0.388889  0.333333  0.461538     16.000000
  0.444444  0.333333  0.461538     16.000000
  0.500000  0.333333  0.461538      8.000000
  0.388889  0.388889  0.461538      8.000000
  0.444444  0.388889  0.461538     16.000000
  0.500000  0.388889  0.461538      8.000000
  0.444444  0.444444  0.461538      8.000000
  0.500000  0.444444  0.461538      8.000000
  0.500000  0.500000  0.461538      2.000000
 
 Following cartesian coordinates:
            Coordinates               Weight
  0.000000  0.000000  0.000000      1.000000
  0.020043  0.000000  0.000000      4.000000
  0.040085  0.000000  0.000000      4.000000
  0.060128  0.000000  0.000000      4.000000
  0.080171  0.000000  0.000000      4.000000
  0.100214  0.000000  0.000000      4.000000
  0.120256  0.000000  0.000000      4.000000
  0.140299  0.000000  0.000000      4.000000
  0.160342  0.000000  0.000000      4.000000
  0.180384  0.000000  0.000000      2.000000
  0.020043  0.020043  0.000000      4.000000
  0.040085  0.020043  0.000000      8.000000
  0.060128  0.020043  0.000000      8.000000
  0.080171  0.020043  0.000000      8.000000
  0.100214  0.020043  0.000000      8.000000
  0.120256  0.020043  0.000000      8.000000
  0.140299  0.020043  0.000000      8.000000
  0.160342  0.020043  0.000000      8.000000
  0.180384  0.020043  0.000000      4.000000
  0.040085  0.040085  0.000000      4.000000
  0.060128  0.040085  0.000000      8.000000
  0.080171  0.040085  0.000000      8.000000
  0.100214  0.040085  0.000000      8.000000
  0.120256  0.040085  0.000000      8.000000
  0.140299  0.040085  0.000000      8.000000
  0.160342  0.040085  0.000000      8.000000
  0.180384  0.040085  0.000000      4.000000
  0.060128  0.060128  0.000000      4.000000
  0.080171  0.060128  0.000000      8.000000
  0.100214  0.060128  0.000000      8.000000
  0.120256  0.060128  0.000000      8.000000
  0.140299  0.060128  0.000000      8.000000
  0.160342  0.060128  0.000000      8.000000
  0.180384  0.060128  0.000000      4.000000
  0.080171  0.080171  0.000000      4.000000
  0.100214  0.080171  0.000000      8.000000
  0.120256  0.080171  0.000000      8.000000
  0.140299  0.080171  0.000000      8.000000
  0.160342  0.080171  0.000000      8.000000
  0.180384  0.080171  0.000000      4.000000
  0.100214  0.100214  0.000000      4.000000
  0.120256  0.100214  0.000000      8.000000
  0.140299  0.100214  0.000000      8.000000
  0.160342  0.100214  0.000000      8.000000
  0.180384  0.100214  0.000000      4.000000
  0.120256  0.120256  0.000000      4.000000
  0.140299  0.120256  0.000000      8.000000
  0.160342  0.120256  0.000000      8.000000
  0.180384  0.120256  0.000000      4.000000
  0.140299  0.140299  0.000000      4.000000
  0.160342  0.140299  0.000000      8.000000
  0.180384  0.140299  0.000000      4.000000
  0.160342  0.160342  0.000000      4.000000
  0.180384  0.160342  0.000000      4.000000
  0.180384  0.180384  0.000000      1.000000
  0.000000  0.000000  0.019623      2.000000
  0.020043  0.000000  0.019623      8.000000
  0.040085  0.000000  0.019623      8.000000
  0.060128  0.000000  0.019623      8.000000
  0.080171  0.000000  0.019623      8.000000
  0.100214  0.000000  0.019623      8.000000
  0.120256  0.000000  0.019623      8.000000
  0.140299  0.000000  0.019623      8.000000
  0.160342  0.000000  0.019623      8.000000
  0.180384  0.000000  0.019623      4.000000
  0.020043  0.020043  0.019623      8.000000
  0.040085  0.020043  0.019623     16.000000
  0.060128  0.020043  0.019623     16.000000
  0.080171  0.020043  0.019623     16.000000
  0.100214  0.020043  0.019623     16.000000
  0.120256  0.020043  0.019623     16.000000
  0.140299  0.020043  0.019623     16.000000
  0.160342  0.020043  0.019623     16.000000
  0.180384  0.020043  0.019623      8.000000
  0.040085  0.040085  0.019623      8.000000
  0.060128  0.040085  0.019623     16.000000
  0.080171  0.040085  0.019623     16.000000
  0.100214  0.040085  0.019623     16.000000
  0.120256  0.040085  0.019623     16.000000
  0.140299  0.040085  0.019623     16.000000
  0.160342  0.040085  0.019623     16.000000
  0.180384  0.040085  0.019623      8.000000
  0.060128  0.060128  0.019623      8.000000
  0.080171  0.060128  0.019623     16.000000
  0.100214  0.060128  0.019623     16.000000
  0.120256  0.060128  0.019623     16.000000
  0.140299  0.060128  0.019623     16.000000
  0.160342  0.060128  0.019623     16.000000
  0.180384  0.060128  0.019623      8.000000
  0.080171  0.080171  0.019623      8.000000
  0.100214  0.080171  0.019623     16.000000
  0.120256  0.080171  0.019623     16.000000
  0.140299  0.080171  0.019623     16.000000
  0.160342  0.080171  0.019623     16.000000
  0.180384  0.080171  0.019623      8.000000
  0.100214  0.100214  0.019623      8.000000
  0.120256  0.100214  0.019623     16.000000
  0.140299  0.100214  0.019623     16.000000
  0.160342  0.100214  0.019623     16.000000
  0.180384  0.100214  0.019623      8.000000
  0.120256  0.120256  0.019623      8.000000
  0.140299  0.120256  0.019623     16.000000
  0.160342  0.120256  0.019623     16.000000
  0.180384  0.120256  0.019623      8.000000
  0.140299  0.140299  0.019623      8.000000
  0.160342  0.140299  0.019623     16.000000
  0.180384  0.140299  0.019623      8.000000
  0.160342  0.160342  0.019623      8.000000
  0.180384  0.160342  0.019623      8.000000
  0.180384  0.180384  0.019623      2.000000
  0.000000  0.000000  0.039246      2.000000
  0.020043  0.000000  0.039246      8.000000
  0.040085  0.000000  0.039246      8.000000
  0.060128  0.000000  0.039246      8.000000
  0.080171  0.000000  0.039246      8.000000
  0.100214  0.000000  0.039246      8.000000
  0.120256  0.000000  0.039246      8.000000
  0.140299  0.000000  0.039246      8.000000
  0.160342  0.000000  0.039246      8.000000
  0.180384  0.000000  0.039246      4.000000
  0.020043  0.020043  0.039246      8.000000
  0.040085  0.020043  0.039246     16.000000
  0.060128  0.020043  0.039246     16.000000
  0.080171  0.020043  0.039246     16.000000
  0.100214  0.020043  0.039246     16.000000
  0.120256  0.020043  0.039246     16.000000
  0.140299  0.020043  0.039246     16.000000
  0.160342  0.020043  0.039246     16.000000
  0.180384  0.020043  0.039246      8.000000
  0.040085  0.040085  0.039246      8.000000
  0.060128  0.040085  0.039246     16.000000
  0.080171  0.040085  0.039246     16.000000
  0.100214  0.040085  0.039246     16.000000
  0.120256  0.040085  0.039246     16.000000
  0.140299  0.040085  0.039246     16.000000
  0.160342  0.040085  0.039246     16.000000
  0.180384  0.040085  0.039246      8.000000
  0.060128  0.060128  0.039246      8.000000
  0.080171  0.060128  0.039246     16.000000
  0.100214  0.060128  0.039246     16.000000
  0.120256  0.060128  0.039246     16.000000
  0.140299  0.060128  0.039246     16.000000
  0.160342  0.060128  0.039246     16.000000
  0.180384  0.060128  0.039246      8.000000
  0.080171  0.080171  0.039246      8.000000
  0.100214  0.080171  0.039246     16.000000
  0.120256  0.080171  0.039246     16.000000
  0.140299  0.080171  0.039246     16.000000
  0.160342  0.080171  0.039246     16.000000
  0.180384  0.080171  0.039246      8.000000
  0.100214  0.100214  0.039246      8.000000
  0.120256  0.100214  0.039246     16.000000
  0.140299  0.100214  0.039246     16.000000
  0.160342  0.100214  0.039246     16.000000
  0.180384  0.100214  0.039246      8.000000
  0.120256  0.120256  0.039246      8.000000
  0.140299  0.120256  0.039246     16.000000
  0.160342  0.120256  0.039246     16.000000
  0.180384  0.120256  0.039246      8.000000
  0.140299  0.140299  0.039246      8.000000
  0.160342  0.140299  0.039246     16.000000
  0.180384  0.140299  0.039246      8.000000
  0.160342  0.160342  0.039246      8.000000
  0.180384  0.160342  0.039246      8.000000
  0.180384  0.180384  0.039246      2.000000
  0.000000  0.000000  0.058870      2.000000
  0.020043  0.000000  0.058870      8.000000
  0.040085  0.000000  0.058870      8.000000
  0.060128  0.000000  0.058870      8.000000
  0.080171  0.000000  0.058870      8.000000
  0.100214  0.000000  0.058870      8.000000
  0.120256  0.000000  0.058870      8.000000
  0.140299  0.000000  0.058870      8.000000
  0.160342  0.000000  0.058870      8.000000
  0.180384  0.000000  0.058870      4.000000
  0.020043  0.020043  0.058870      8.000000
  0.040085  0.020043  0.058870     16.000000
  0.060128  0.020043  0.058870     16.000000
  0.080171  0.020043  0.058870     16.000000
  0.100214  0.020043  0.058870     16.000000
  0.120256  0.020043  0.058870     16.000000
  0.140299  0.020043  0.058870     16.000000
  0.160342  0.020043  0.058870     16.000000
  0.180384  0.020043  0.058870      8.000000
  0.040085  0.040085  0.058870      8.000000
  0.060128  0.040085  0.058870     16.000000
  0.080171  0.040085  0.058870     16.000000
  0.100214  0.040085  0.058870     16.000000
  0.120256  0.040085  0.058870     16.000000
  0.140299  0.040085  0.058870     16.000000
  0.160342  0.040085  0.058870     16.000000
  0.180384  0.040085  0.058870      8.000000
  0.060128  0.060128  0.058870      8.000000
  0.080171  0.060128  0.058870     16.000000
  0.100214  0.060128  0.058870     16.000000
  0.120256  0.060128  0.058870     16.000000
  0.140299  0.060128  0.058870     16.000000
  0.160342  0.060128  0.058870     16.000000
  0.180384  0.060128  0.058870      8.000000
  0.080171  0.080171  0.058870      8.000000
  0.100214  0.080171  0.058870     16.000000
  0.120256  0.080171  0.058870     16.000000
  0.140299  0.080171  0.058870     16.000000
  0.160342  0.080171  0.058870     16.000000
  0.180384  0.080171  0.058870      8.000000
  0.100214  0.100214  0.058870      8.000000
  0.120256  0.100214  0.058870     16.000000
  0.140299  0.100214  0.058870     16.000000
  0.160342  0.100214  0.058870     16.000000
  0.180384  0.100214  0.058870      8.000000
  0.120256  0.120256  0.058870      8.000000
  0.140299  0.120256  0.058870     16.000000
  0.160342  0.120256  0.058870     16.000000
  0.180384  0.120256  0.058870      8.000000
  0.140299  0.140299  0.058870      8.000000
  0.160342  0.140299  0.058870     16.000000
  0.180384  0.140299  0.058870      8.000000
  0.160342  0.160342  0.058870      8.000000
  0.180384  0.160342  0.058870      8.000000
  0.180384  0.180384  0.058870      2.000000
  0.000000  0.000000  0.078493      2.000000
  0.020043  0.000000  0.078493      8.000000
  0.040085  0.000000  0.078493      8.000000
  0.060128  0.000000  0.078493      8.000000
  0.080171  0.000000  0.078493      8.000000
  0.100214  0.000000  0.078493      8.000000
  0.120256  0.000000  0.078493      8.000000
  0.140299  0.000000  0.078493      8.000000
  0.160342  0.000000  0.078493      8.000000
  0.180384  0.000000  0.078493      4.000000
  0.020043  0.020043  0.078493      8.000000
  0.040085  0.020043  0.078493     16.000000
  0.060128  0.020043  0.078493     16.000000
  0.080171  0.020043  0.078493     16.000000
  0.100214  0.020043  0.078493     16.000000
  0.120256  0.020043  0.078493     16.000000
  0.140299  0.020043  0.078493     16.000000
  0.160342  0.020043  0.078493     16.000000
  0.180384  0.020043  0.078493      8.000000
  0.040085  0.040085  0.078493      8.000000
  0.060128  0.040085  0.078493     16.000000
  0.080171  0.040085  0.078493     16.000000
  0.100214  0.040085  0.078493     16.000000
  0.120256  0.040085  0.078493     16.000000
  0.140299  0.040085  0.078493     16.000000
  0.160342  0.040085  0.078493     16.000000
  0.180384  0.040085  0.078493      8.000000
  0.060128  0.060128  0.078493      8.000000
  0.080171  0.060128  0.078493     16.000000
  0.100214  0.060128  0.078493     16.000000
  0.120256  0.060128  0.078493     16.000000
  0.140299  0.060128  0.078493     16.000000
  0.160342  0.060128  0.078493     16.000000
  0.180384  0.060128  0.078493      8.000000
  0.080171  0.080171  0.078493      8.000000
  0.100214  0.080171  0.078493     16.000000
  0.120256  0.080171  0.078493     16.000000
  0.140299  0.080171  0.078493     16.000000
  0.160342  0.080171  0.078493     16.000000
  0.180384  0.080171  0.078493      8.000000
  0.100214  0.100214  0.078493      8.000000
  0.120256  0.100214  0.078493     16.000000
  0.140299  0.100214  0.078493     16.000000
  0.160342  0.100214  0.078493     16.000000
  0.180384  0.100214  0.078493      8.000000
  0.120256  0.120256  0.078493      8.000000
  0.140299  0.120256  0.078493     16.000000
  0.160342  0.120256  0.078493     16.000000
  0.180384  0.120256  0.078493      8.000000
  0.140299  0.140299  0.078493      8.000000
  0.160342  0.140299  0.078493     16.000000
  0.180384  0.140299  0.078493      8.000000
  0.160342  0.160342  0.078493      8.000000
  0.180384  0.160342  0.078493      8.000000
  0.180384  0.180384  0.078493      2.000000
  0.000000  0.000000  0.098116      2.000000
  0.020043  0.000000  0.098116      8.000000
  0.040085  0.000000  0.098116      8.000000
  0.060128  0.000000  0.098116      8.000000
  0.080171  0.000000  0.098116      8.000000
  0.100214  0.000000  0.098116      8.000000
  0.120256  0.000000  0.098116      8.000000
  0.140299  0.000000  0.098116      8.000000
  0.160342  0.000000  0.098116      8.000000
  0.180384  0.000000  0.098116      4.000000
  0.020043  0.020043  0.098116      8.000000
  0.040085  0.020043  0.098116     16.000000
  0.060128  0.020043  0.098116     16.000000
  0.080171  0.020043  0.098116     16.000000
  0.100214  0.020043  0.098116     16.000000
  0.120256  0.020043  0.098116     16.000000
  0.140299  0.020043  0.098116     16.000000
  0.160342  0.020043  0.098116     16.000000
  0.180384  0.020043  0.098116      8.000000
  0.040085  0.040085  0.098116      8.000000
  0.060128  0.040085  0.098116     16.000000
  0.080171  0.040085  0.098116     16.000000
  0.100214  0.040085  0.098116     16.000000
  0.120256  0.040085  0.098116     16.000000
  0.140299  0.040085  0.098116     16.000000
  0.160342  0.040085  0.098116     16.000000
  0.180384  0.040085  0.098116      8.000000
  0.060128  0.060128  0.098116      8.000000
  0.080171  0.060128  0.098116     16.000000
  0.100214  0.060128  0.098116     16.000000
  0.120256  0.060128  0.098116     16.000000
  0.140299  0.060128  0.098116     16.000000
  0.160342  0.060128  0.098116     16.000000
  0.180384  0.060128  0.098116      8.000000
  0.080171  0.080171  0.098116      8.000000
  0.100214  0.080171  0.098116     16.000000
  0.120256  0.080171  0.098116     16.000000
  0.140299  0.080171  0.098116     16.000000
  0.160342  0.080171  0.098116     16.000000
  0.180384  0.080171  0.098116      8.000000
  0.100214  0.100214  0.098116      8.000000
  0.120256  0.100214  0.098116     16.000000
  0.140299  0.100214  0.098116     16.000000
  0.160342  0.100214  0.098116     16.000000
  0.180384  0.100214  0.098116      8.000000
  0.120256  0.120256  0.098116      8.000000
  0.140299  0.120256  0.098116     16.000000
  0.160342  0.120256  0.098116     16.000000
  0.180384  0.120256  0.098116      8.000000
  0.140299  0.140299  0.098116      8.000000
  0.160342  0.140299  0.098116     16.000000
  0.180384  0.140299  0.098116      8.000000
  0.160342  0.160342  0.098116      8.000000
  0.180384  0.160342  0.098116      8.000000
  0.180384  0.180384  0.098116      2.000000
  0.000000  0.000000  0.117739      2.000000
  0.020043  0.000000  0.117739      8.000000
  0.040085  0.000000  0.117739      8.000000
  0.060128  0.000000  0.117739      8.000000
  0.080171  0.000000  0.117739      8.000000
  0.100214  0.000000  0.117739      8.000000
  0.120256  0.000000  0.117739      8.000000
  0.140299  0.000000  0.117739      8.000000
  0.160342  0.000000  0.117739      8.000000
  0.180384  0.000000  0.117739      4.000000
  0.020043  0.020043  0.117739      8.000000
  0.040085  0.020043  0.117739     16.000000
  0.060128  0.020043  0.117739     16.000000
  0.080171  0.020043  0.117739     16.000000
  0.100214  0.020043  0.117739     16.000000
  0.120256  0.020043  0.117739     16.000000
  0.140299  0.020043  0.117739     16.000000
  0.160342  0.020043  0.117739     16.000000
  0.180384  0.020043  0.117739      8.000000
  0.040085  0.040085  0.117739      8.000000
  0.060128  0.040085  0.117739     16.000000
  0.080171  0.040085  0.117739     16.000000
  0.100214  0.040085  0.117739     16.000000
  0.120256  0.040085  0.117739     16.000000
  0.140299  0.040085  0.117739     16.000000
  0.160342  0.040085  0.117739     16.000000
  0.180384  0.040085  0.117739      8.000000
  0.060128  0.060128  0.117739      8.000000
  0.080171  0.060128  0.117739     16.000000
  0.100214  0.060128  0.117739     16.000000
  0.120256  0.060128  0.117739     16.000000
  0.140299  0.060128  0.117739     16.000000
  0.160342  0.060128  0.117739     16.000000
  0.180384  0.060128  0.117739      8.000000
  0.080171  0.080171  0.117739      8.000000
  0.100214  0.080171  0.117739     16.000000
  0.120256  0.080171  0.117739     16.000000
  0.140299  0.080171  0.117739     16.000000
  0.160342  0.080171  0.117739     16.000000
  0.180384  0.080171  0.117739      8.000000
  0.100214  0.100214  0.117739      8.000000
  0.120256  0.100214  0.117739     16.000000
  0.140299  0.100214  0.117739     16.000000
  0.160342  0.100214  0.117739     16.000000
  0.180384  0.100214  0.117739      8.000000
  0.120256  0.120256  0.117739      8.000000
  0.140299  0.120256  0.117739     16.000000
  0.160342  0.120256  0.117739     16.000000
  0.180384  0.120256  0.117739      8.000000
  0.140299  0.140299  0.117739      8.000000
  0.160342  0.140299  0.117739     16.000000
  0.180384  0.140299  0.117739      8.000000
  0.160342  0.160342  0.117739      8.000000
  0.180384  0.160342  0.117739      8.000000
  0.180384  0.180384  0.117739      2.000000
 


--------------------------------------------------------------------------------------------------------




 Dimension of arrays:
   k-points           NKPTS =    385   k-points in BZ     NKDIM =    385   number of bands    NBANDS=     16
   number of dos      NEDOS =    301   number of ions     NIONS =      2
   non local maximal  LDIM  =      6   non local SUM 2l+1 LMDIM =     18
   total plane-waves  NPLWV =  18432
   max r-space proj   IRMAX =   6555   max aug-charges    IRDMAX=   4832
   dimension x,y,z NGX =    24 NGY =   24 NGZ =   32
   dimension x,y,z NGXF=    24 NGYF=   24 NGZF=   32
   support grid    NGXF=    24 NGYF=   24 NGZF=   32
   ions per type =               2
   NGX,Y,Z   is equivalent  to a cutoff of  14.39, 14.39, 13.57 a.u.
   NGXF,Y,Z  is equivalent  to a cutoff of  14.39, 14.39, 13.57 a.u.

 SYSTEM =  Cu-Bulk calculation RELAX               
 POSCAR =  Pt                                      

 Startparameter for this run:
   NWRITE =      2    write-flag & timer
   PREC   = h         normal or accurate (medium, high low for compatibility)
   ISTART =      0    job   : 0-new  1-cont  2-samecut
   ICHARG =      2    charge: 1-file 2-atom 10-const
   ISPIN  =      1    spin polarized calculation?
   LNONCOLLINEAR =      F non collinear calculations
   LSORBIT =      F    spin-orbit coupling
   INIWAV =      1    electr: 0-lowe 1-rand  2-diag
   LASPH  =      F    aspherical Exc in radial PAW
   METAGGA=      F    non-selfconsistent MetaGGA calc.

 Electronic Relaxation 1
   ENCUT  =  600.0 eV  44.10 Ry    6.64 a.u.   5.54  5.54  7.83*2*pi/ulx,y,z
   ENINI  =  600.0     initial cutoff
   ENAUG  =  359.0 eV  augmentation charge cutoff
   NELM   =     60;   NELMIN=  2; NELMDL= -5     # of ELM steps 
   EDIFF  = 0.1E-05   stopping-criterion for ELM
   LREAL  =      T    real-space projection
   NLSPLINE    = F    spline interpolate recip. space projectors
   LCOMPAT=      F    compatible to vasp.4.4
   GGA_COMPAT  = T    GGA compatible to vasp.4.4-vasp.4.6
   LMAXPAW     = -100 max onsite density
   LMAXMIX     =    2 max onsite mixed and CHGCAR
   VOSKOWN=      0    Vosko Wilk Nusair interpolation
   ROPT   =   -0.00040
 Ionic relaxation
   EDIFFG = -.1E-01   stopping-criterion for IOM
   NSW    =    200    number of steps for IOM
   NBLOCK =      1;   KBLOCK =    200    inner block; outer block 
   IBRION =      1    ionic relax: 0-MD 1-quasi-New 2-CG
   NFREE  =      0    steps in history (QN), initial steepest desc. (CG)
   ISIF   =      3    stress and relaxation
   IWAVPR =     11    prediction:  0-non 1-charg 2-wave 3-comb
   ISYM   =      2    0-nonsym 1-usesym 2-fastsym
   LCORR  =      T    Harris-Foulkes like correction to forces

   POTIM  = 0.1000    time-step for ionic-motion
   TEIN   =    0.0    initial temperature
   TEBEG  =    0.0;   TEEND  =   0.0 temperature during run
   SMASS  =  -3.00    Nose mass-parameter (am)
   estimated Nose-frequenzy (Omega)   =  0.10E-29 period in steps =****** mass=  -0.176E-27a.u.
   SCALEE = 1.0000    scale energy and forces
   NPACO  =    256;   APACO  = 16.0  distance and # of slots for P.C.
   PSTRESS=    0.0 pullay stress

  Mass of Ions in am
   POMASS = 195.08
  Ionic Valenz
   ZVAL   =  10.00
  Atomic Wigner-Seitz radii
   RWIGS  =  -1.00
  virtual crystal weights 
   VCA    =   1.00
   NELECT =      20.0000    total number of electrons
   NUPDOWN=      -1.0000    fix difference up-down

 DOS related values:
   EMIN   =  10.00;   EMAX   =-10.00  energy-range for DOS
   EFERMI =   0.00
   ISMEAR =     1;   SIGMA  =   0.10  broadening in eV -4-tet -1-fermi 0-gaus

 Electronic relaxation 2 (details)
   IALGO  =     68    algorithm
   LDIAG  =      T    sub-space diagonalisation (order eigenvalues)
   LSUBROT=      F    optimize rotation matrix (better conditioning)
   TURBO    =      0    0=normal 1=particle mesh
   IRESTART =      0    0=no restart 2=restart with 2 vectors
   NREBOOT  =      0    no. of reboots
   NMIN     =      0    reboot dimension
   EREF     =   0.00    reference energy to select bands
   IMIX   =      4    mixing-type and parameters
     AMIX     =   0.40;   BMIX     =  1.00
     AMIX_MAG =   1.60;   BMIX_MAG =  1.00
     AMIN     =   0.10
     WC   =   100.;   INIMIX=   1;  MIXPRE=   1;  MAXMIX= -45

 Intra band minimization:
   WEIMIN = 0.0010     energy-eigenvalue tresh-hold
   EBREAK =  0.16E-07  absolut break condition
   DEPER  =   0.30     relativ break condition  

   TIME   =   0.40     timestep for ELM

  volume/ion in A,a.u.               =      15.06       101.62
  Fermi-wavevector in a.u.,A,eV,Ry     =   1.428265  2.699029 27.755077  2.039941
  Thomas-Fermi vector in A             =   2.548345
 
 Write flags
   LWAVE        =      T    write WAVECAR
   LDOWNSAMPLE  =      F    k-point downsampling of WAVECAR
   LCHARG       =      T    write CHGCAR
   LVTOT        =      F    write LOCPOT, total local potential
   LVHAR        =      F    write LOCPOT, Hartree potential only
   LELF         =      F    write electronic localiz. function (ELF)
   LORBIT       =      0    0 simple, 1 ext, 2 COOP (PROOUT), +10 PAW based schemes


 Dipole corrections
   LMONO  =      F    monopole corrections only (constant potential shift)
   LDIPOL =      F    correct potential (dipole corrections)
   IDIPOL =      0    1-x, 2-y, 3-z, 4-all directions 
   EPSILON=  1.0000000 bulk dielectric constant

 Exchange correlation treatment:
   GGA     =    --    GGA type
   LEXCH   =     8    internal setting for exchange type
   VOSKOWN=      0    Vosko Wilk Nusair interpolation
   LHFCALC =     F    Hartree Fock is set to
   LHFONE  =     F    Hartree Fock one center treatment
   AEXX    =    0.0000 exact exchange contribution

 Linear response parameters
   LEPSILON=     F    determine dielectric tensor
   LRPA    =     F    only Hartree local field effects (RPA)
   LNABLA  =     F    use nabla operator in PAW spheres
   LVEL    =     F    velocity operator in full k-point grid
   LINTERFAST=   F  fast interpolation
   KINTER  =     0    interpolate to denser k-point grid
   CSHIFT  =0.1000    complex shift for real part using Kramers Kronig
   OMEGAMAX=  -1.0    maximum frequency
   DEG_THRESHOLD= 0.2000000E-02 threshold for treating states as degnerate
   RTIME   =   -0.100 relaxation time in fs
  (WPLASMAI=    0.000 imaginary part of plasma frequency in eV, 0.658/RTIME)
   DFIELD  = 0.0000000 0.0000000 0.0000000 field for delta impulse in time
 
 Orbital magnetization related:
   ORBITALMAG=     F  switch on orbital magnetization
   LCHIMAG   =     F  perturbation theory with respect to B field
   DQ        =  0.001000  dq finite difference perturbation B field
   LLRAUG    =     F  two centre corrections for induced B field



--------------------------------------------------------------------------------------------------------


 quasi-Newton-method for relaxation of ions
 charge density and potential will be updated during run
 non-spin polarized calculation
 RMM-DIIS sequential band-by-band and
  variant of blocked Davidson during initial phase
 perform sub-space diagonalisation
    before iterative eigenvector-optimisation
 modified Broyden-mixing scheme, WC =      100.0
 initial mixing is a Kerker type mixing with AMIX =  0.4000 and BMIX =      1.0000
 Hartree-type preconditioning will be used
 using additional bands            6
 real space projection scheme for non local part
 use partial core corrections
 calculate Harris-corrections to forces 
   (improved forces if not selfconsistent)
 use gradient corrections 
 use of overlap-Matrix (Vanderbilt PP)
 Methfessel and Paxton  Order N= 1 SIGMA  =   0.10


--------------------------------------------------------------------------------------------------------


  energy-cutoff  :      600.00
  volume of cell :       30.12
      direct lattice vectors                 reciprocal lattice vectors
     2.771858582  0.000000000  0.000000000     0.360768766  0.000000000  0.000000000
     0.000000000  2.771858582  0.000000000     0.000000000  0.360768766  0.000000000
     0.000000000  0.000000000  3.920000000     0.000000000  0.000000000  0.255102041

  length of vectors
     2.771858582  2.771858582  3.920000000     0.360768766  0.360768766  0.255102041


 
 k-points in units of 2pi/SCALE and weight: K-Spacing Value to Generate K-Mesh: 0.02
   0.00000000  0.00000000  0.00000000       0.000
   0.02004271  0.00000000  0.00000000       0.001
   0.04008542  0.00000000  0.00000000       0.001
   0.06012813  0.00000000  0.00000000       0.001
   0.08017084  0.00000000  0.00000000       0.001
   0.10021355  0.00000000  0.00000000       0.001
   0.12025626  0.00000000  0.00000000       0.001
   0.14029896  0.00000000  0.00000000       0.001
   0.16034167  0.00000000  0.00000000       0.001
   0.18038438  0.00000000  0.00000000       0.000
   0.02004271  0.02004271  0.00000000       0.001
   0.04008542  0.02004271  0.00000000       0.002
   0.06012813  0.02004271  0.00000000       0.002
   0.08017084  0.02004271  0.00000000       0.002
   0.10021355  0.02004271  0.00000000       0.002
   0.12025626  0.02004271  0.00000000       0.002
   0.14029896  0.02004271  0.00000000       0.002
   0.16034167  0.02004271  0.00000000       0.002
   0.18038438  0.02004271  0.00000000       0.001
   0.04008542  0.04008542  0.00000000       0.001
   0.06012813  0.04008542  0.00000000       0.002
   0.08017084  0.04008542  0.00000000       0.002
   0.10021355  0.04008542  0.00000000       0.002
   0.12025626  0.04008542  0.00000000       0.002
   0.14029896  0.04008542  0.00000000       0.002
   0.16034167  0.04008542  0.00000000       0.002
   0.18038438  0.04008542  0.00000000       0.001
   0.06012813  0.06012813  0.00000000       0.001
   0.08017084  0.06012813  0.00000000       0.002
   0.10021355  0.06012813  0.00000000       0.002
   0.12025626  0.06012813  0.00000000       0.002
   0.14029896  0.06012813  0.00000000       0.002
   0.16034167  0.06012813  0.00000000       0.002
   0.18038438  0.06012813  0.00000000       0.001
   0.08017084  0.08017084  0.00000000       0.001
   0.10021355  0.08017084  0.00000000       0.002
   0.12025626  0.08017084  0.00000000       0.002
   0.14029896  0.08017084  0.00000000       0.002
   0.16034167  0.08017084  0.00000000       0.002
   0.18038438  0.08017084  0.00000000       0.001
   0.10021355  0.10021355  0.00000000       0.001
   0.12025626  0.10021355  0.00000000       0.002
   0.14029896  0.10021355  0.00000000       0.002
   0.16034167  0.10021355  0.00000000       0.002
   0.18038438  0.10021355  0.00000000       0.001
   0.12025626  0.12025626  0.00000000       0.001
   0.14029896  0.12025626  0.00000000       0.002
   0.16034167  0.12025626  0.00000000       0.002
   0.18038438  0.12025626  0.00000000       0.001
   0.14029896  0.14029896  0.00000000       0.001
   0.16034167  0.14029896  0.00000000       0.002
   0.18038438  0.14029896  0.00000000       0.001
   0.16034167  0.16034167  0.00000000       0.001
   0.18038438  0.16034167  0.00000000       0.001
   0.18038438  0.18038438  0.00000000       0.000
   0.00000000  0.00000000  0.01962323       0.000
   0.02004271  0.00000000  0.01962323       0.002
   0.04008542  0.00000000  0.01962323       0.002
   0.06012813  0.00000000  0.01962323       0.002
   0.08017084  0.00000000  0.01962323       0.002
   0.10021355  0.00000000  0.01962323       0.002
   0.12025626  0.00000000  0.01962323       0.002
   0.14029896  0.00000000  0.01962323       0.002
   0.16034167  0.00000000  0.01962323       0.002
   0.18038438  0.00000000  0.01962323       0.001
   0.02004271  0.02004271  0.01962323       0.002
   0.04008542  0.02004271  0.01962323       0.004
   0.06012813  0.02004271  0.01962323       0.004
   0.08017084  0.02004271  0.01962323       0.004
   0.10021355  0.02004271  0.01962323       0.004
   0.12025626  0.02004271  0.01962323       0.004
   0.14029896  0.02004271  0.01962323       0.004
   0.16034167  0.02004271  0.01962323       0.004
   0.18038438  0.02004271  0.01962323       0.002
   0.04008542  0.04008542  0.01962323       0.002
   0.06012813  0.04008542  0.01962323       0.004
   0.08017084  0.04008542  0.01962323       0.004
   0.10021355  0.04008542  0.01962323       0.004
   0.12025626  0.04008542  0.01962323       0.004
   0.14029896  0.04008542  0.01962323       0.004
   0.16034167  0.04008542  0.01962323       0.004
   0.18038438  0.04008542  0.01962323       0.002
   0.06012813  0.06012813  0.01962323       0.002
   0.08017084  0.06012813  0.01962323       0.004
   0.10021355  0.06012813  0.01962323       0.004
   0.12025626  0.06012813  0.01962323       0.004
   0.14029896  0.06012813  0.01962323       0.004
   0.16034167  0.06012813  0.01962323       0.004
   0.18038438  0.06012813  0.01962323       0.002
   0.08017084  0.08017084  0.01962323       0.002
   0.10021355  0.08017084  0.01962323       0.004
   0.12025626  0.08017084  0.01962323       0.004
   0.14029896  0.08017084  0.01962323       0.004
   0.16034167  0.08017084  0.01962323       0.004
   0.18038438  0.08017084  0.01962323       0.002
   0.10021355  0.10021355  0.01962323       0.002
   0.12025626  0.10021355  0.01962323       0.004
   0.14029896  0.10021355  0.01962323       0.004
   0.16034167  0.10021355  0.01962323       0.004
   0.18038438  0.10021355  0.01962323       0.002
   0.12025626  0.12025626  0.01962323       0.002
   0.14029896  0.12025626  0.01962323       0.004
   0.16034167  0.12025626  0.01962323       0.004
   0.18038438  0.12025626  0.01962323       0.002
   0.14029896  0.14029896  0.01962323       0.002
   0.16034167  0.14029896  0.01962323       0.004
   0.18038438  0.14029896  0.01962323       0.002
   0.16034167  0.16034167  0.01962323       0.002
   0.18038438  0.16034167  0.01962323       0.002
   0.18038438  0.18038438  0.01962323       0.000
   0.00000000  0.00000000  0.03924647       0.000
   0.02004271  0.00000000  0.03924647       0.002
   0.04008542  0.00000000  0.03924647       0.002
   0.06012813  0.00000000  0.03924647       0.002
   0.08017084  0.00000000  0.03924647       0.002
   0.10021355  0.00000000  0.03924647       0.002
   0.12025626  0.00000000  0.03924647       0.002
   0.14029896  0.00000000  0.03924647       0.002
   0.16034167  0.00000000  0.03924647       0.002
   0.18038438  0.00000000  0.03924647       0.001
   0.02004271  0.02004271  0.03924647       0.002
   0.04008542  0.02004271  0.03924647       0.004
   0.06012813  0.02004271  0.03924647       0.004
   0.08017084  0.02004271  0.03924647       0.004
   0.10021355  0.02004271  0.03924647       0.004
   0.12025626  0.02004271  0.03924647       0.004
   0.14029896  0.02004271  0.03924647       0.004
   0.16034167  0.02004271  0.03924647       0.004
   0.18038438  0.02004271  0.03924647       0.002
   0.04008542  0.04008542  0.03924647       0.002
   0.06012813  0.04008542  0.03924647       0.004
   0.08017084  0.04008542  0.03924647       0.004
   0.10021355  0.04008542  0.03924647       0.004
   0.12025626  0.04008542  0.03924647       0.004
   0.14029896  0.04008542  0.03924647       0.004
   0.16034167  0.04008542  0.03924647       0.004
   0.18038438  0.04008542  0.03924647       0.002
   0.06012813  0.06012813  0.03924647       0.002
   0.08017084  0.06012813  0.03924647       0.004
   0.10021355  0.06012813  0.03924647       0.004
   0.12025626  0.06012813  0.03924647       0.004
   0.14029896  0.06012813  0.03924647       0.004
   0.16034167  0.06012813  0.03924647       0.004
   0.18038438  0.06012813  0.03924647       0.002
   0.08017084  0.08017084  0.03924647       0.002
   0.10021355  0.08017084  0.03924647       0.004
   0.12025626  0.08017084  0.03924647       0.004
   0.14029896  0.08017084  0.03924647       0.004
   0.16034167  0.08017084  0.03924647       0.004
   0.18038438  0.08017084  0.03924647       0.002
   0.10021355  0.10021355  0.03924647       0.002
   0.12025626  0.10021355  0.03924647       0.004
   0.14029896  0.10021355  0.03924647       0.004
   0.16034167  0.10021355  0.03924647       0.004
   0.18038438  0.10021355  0.03924647       0.002
   0.12025626  0.12025626  0.03924647       0.002
   0.14029896  0.12025626  0.03924647       0.004
   0.16034167  0.12025626  0.03924647       0.004
   0.18038438  0.12025626  0.03924647       0.002
   0.14029896  0.14029896  0.03924647       0.002
   0.16034167  0.14029896  0.03924647       0.004
   0.18038438  0.14029896  0.03924647       0.002
   0.16034167  0.16034167  0.03924647       0.002
   0.18038438  0.16034167  0.03924647       0.002
   0.18038438  0.18038438  0.03924647       0.000
   0.00000000  0.00000000  0.05886970       0.000
   0.02004271  0.00000000  0.05886970       0.002
   0.04008542  0.00000000  0.05886970       0.002
   0.06012813  0.00000000  0.05886970       0.002
   0.08017084  0.00000000  0.05886970       0.002
   0.10021355  0.00000000  0.05886970       0.002
   0.12025626  0.00000000  0.05886970       0.002
   0.14029896  0.00000000  0.05886970       0.002
   0.16034167  0.00000000  0.05886970       0.002
   0.18038438  0.00000000  0.05886970       0.001
   0.02004271  0.02004271  0.05886970       0.002
   0.04008542  0.02004271  0.05886970       0.004
   0.06012813  0.02004271  0.05886970       0.004
   0.08017084  0.02004271  0.05886970       0.004
   0.10021355  0.02004271  0.05886970       0.004
   0.12025626  0.02004271  0.05886970       0.004
   0.14029896  0.02004271  0.05886970       0.004
   0.16034167  0.02004271  0.05886970       0.004
   0.18038438  0.02004271  0.05886970       0.002
   0.04008542  0.04008542  0.05886970       0.002
   0.06012813  0.04008542  0.05886970       0.004
   0.08017084  0.04008542  0.05886970       0.004
   0.10021355  0.04008542  0.05886970       0.004
   0.12025626  0.04008542  0.05886970       0.004
   0.14029896  0.04008542  0.05886970       0.004
   0.16034167  0.04008542  0.05886970       0.004
   0.18038438  0.04008542  0.05886970       0.002
   0.06012813  0.06012813  0.05886970       0.002
   0.08017084  0.06012813  0.05886970       0.004
   0.10021355  0.06012813  0.05886970       0.004
   0.12025626  0.06012813  0.05886970       0.004
   0.14029896  0.06012813  0.05886970       0.004
   0.16034167  0.06012813  0.05886970       0.004
   0.18038438  0.06012813  0.05886970       0.002
   0.08017084  0.08017084  0.05886970       0.002
   0.10021355  0.08017084  0.05886970       0.004
   0.12025626  0.08017084  0.05886970       0.004
   0.14029896  0.08017084  0.05886970       0.004
   0.16034167  0.08017084  0.05886970       0.004
   0.18038438  0.08017084  0.05886970       0.002
   0.10021355  0.10021355  0.05886970       0.002
   0.12025626  0.10021355  0.05886970       0.004
   0.14029896  0.10021355  0.05886970       0.004
   0.16034167  0.10021355  0.05886970       0.004
   0.18038438  0.10021355  0.05886970       0.002
   0.12025626  0.12025626  0.05886970       0.002
   0.14029896  0.12025626  0.05886970       0.004
   0.16034167  0.12025626  0.05886970       0.004
   0.18038438  0.12025626  0.05886970       0.002
   0.14029896  0.14029896  0.05886970       0.002
   0.16034167  0.14029896  0.05886970       0.004
   0.18038438  0.14029896  0.05886970       0.002
   0.16034167  0.16034167  0.05886970       0.002
   0.18038438  0.16034167  0.05886970       0.002
   0.18038438  0.18038438  0.05886970       0.000
   0.00000000  0.00000000  0.07849294       0.000
   0.02004271  0.00000000  0.07849294       0.002
   0.04008542  0.00000000  0.07849294       0.002
   0.06012813  0.00000000  0.07849294       0.002
   0.08017084  0.00000000  0.07849294       0.002
   0.10021355  0.00000000  0.07849294       0.002
   0.12025626  0.00000000  0.07849294       0.002
   0.14029896  0.00000000  0.07849294       0.002
   0.16034167  0.00000000  0.07849294       0.002
   0.18038438  0.00000000  0.07849294       0.001
   0.02004271  0.02004271  0.07849294       0.002
   0.04008542  0.02004271  0.07849294       0.004
   0.06012813  0.02004271  0.07849294       0.004
   0.08017084  0.02004271  0.07849294       0.004
   0.10021355  0.02004271  0.07849294       0.004
   0.12025626  0.02004271  0.07849294       0.004
   0.14029896  0.02004271  0.07849294       0.004
   0.16034167  0.02004271  0.07849294       0.004
   0.18038438  0.02004271  0.07849294       0.002
   0.04008542  0.04008542  0.07849294       0.002
   0.06012813  0.04008542  0.07849294       0.004
   0.08017084  0.04008542  0.07849294       0.004
   0.10021355  0.04008542  0.07849294       0.004
   0.12025626  0.04008542  0.07849294       0.004
   0.14029896  0.04008542  0.07849294       0.004
   0.16034167  0.04008542  0.07849294       0.004
   0.18038438  0.04008542  0.07849294       0.002
   0.06012813  0.06012813  0.07849294       0.002
   0.08017084  0.06012813  0.07849294       0.004
   0.10021355  0.06012813  0.07849294       0.004
   0.12025626  0.06012813  0.07849294       0.004
   0.14029896  0.06012813  0.07849294       0.004
   0.16034167  0.06012813  0.07849294       0.004
   0.18038438  0.06012813  0.07849294       0.002
   0.08017084  0.08017084  0.07849294       0.002
   0.10021355  0.08017084  0.07849294       0.004
   0.12025626  0.08017084  0.07849294       0.004
   0.14029896  0.08017084  0.07849294       0.004
   0.16034167  0.08017084  0.07849294       0.004
   0.18038438  0.08017084  0.07849294       0.002
   0.10021355  0.10021355  0.07849294       0.002
   0.12025626  0.10021355  0.07849294       0.004
   0.14029896  0.10021355  0.07849294       0.004
   0.16034167  0.10021355  0.07849294       0.004
   0.18038438  0.10021355  0.07849294       0.002
   0.12025626  0.12025626  0.07849294       0.002
   0.14029896  0.12025626  0.07849294       0.004
   0.16034167  0.12025626  0.07849294       0.004
   0.18038438  0.12025626  0.07849294       0.002
   0.14029896  0.14029896  0.07849294       0.002
   0.16034167  0.14029896  0.07849294       0.004
   0.18038438  0.14029896  0.07849294       0.002
   0.16034167  0.16034167  0.07849294       0.002
   0.18038438  0.16034167  0.07849294       0.002
   0.18038438  0.18038438  0.07849294       0.000
   0.00000000  0.00000000  0.09811617       0.000
   0.02004271  0.00000000  0.09811617       0.002
   0.04008542  0.00000000  0.09811617       0.002
   0.06012813  0.00000000  0.09811617       0.002
   0.08017084  0.00000000  0.09811617       0.002
   0.10021355  0.00000000  0.09811617       0.002
   0.12025626  0.00000000  0.09811617       0.002
   0.14029896  0.00000000  0.09811617       0.002
   0.16034167  0.00000000  0.09811617       0.002
   0.18038438  0.00000000  0.09811617       0.001
   0.02004271  0.02004271  0.09811617       0.002
   0.04008542  0.02004271  0.09811617       0.004
   0.06012813  0.02004271  0.09811617       0.004
   0.08017084  0.02004271  0.09811617       0.004
   0.10021355  0.02004271  0.09811617       0.004
   0.12025626  0.02004271  0.09811617       0.004
   0.14029896  0.02004271  0.09811617       0.004
   0.16034167  0.02004271  0.09811617       0.004
   0.18038438  0.02004271  0.09811617       0.002
   0.04008542  0.04008542  0.09811617       0.002
   0.06012813  0.04008542  0.09811617       0.004
   0.08017084  0.04008542  0.09811617       0.004
   0.10021355  0.04008542  0.09811617       0.004
   0.12025626  0.04008542  0.09811617       0.004
   0.14029896  0.04008542  0.09811617       0.004
   0.16034167  0.04008542  0.09811617       0.004
   0.18038438  0.04008542  0.09811617       0.002
   0.06012813  0.06012813  0.09811617       0.002
   0.08017084  0.06012813  0.09811617       0.004
   0.10021355  0.06012813  0.09811617       0.004
   0.12025626  0.06012813  0.09811617       0.004
   0.14029896  0.06012813  0.09811617       0.004
   0.16034167  0.06012813  0.09811617       0.004
   0.18038438  0.06012813  0.09811617       0.002
   0.08017084  0.08017084  0.09811617       0.002
   0.10021355  0.08017084  0.09811617       0.004
   0.12025626  0.08017084  0.09811617       0.004
   0.14029896  0.08017084  0.09811617       0.004
   0.16034167  0.08017084  0.09811617       0.004
   0.18038438  0.08017084  0.09811617       0.002
   0.10021355  0.10021355  0.09811617       0.002
   0.12025626  0.10021355  0.09811617       0.004
   0.14029896  0.10021355  0.09811617       0.004
   0.16034167  0.10021355  0.09811617       0.004
   0.18038438  0.10021355  0.09811617       0.002
   0.12025626  0.12025626  0.09811617       0.002
   0.14029896  0.12025626  0.09811617       0.004
   0.16034167  0.12025626  0.09811617       0.004
   0.18038438  0.12025626  0.09811617       0.002
   0.14029896  0.14029896  0.09811617       0.002
   0.16034167  0.14029896  0.09811617       0.004
   0.18038438  0.14029896  0.09811617       0.002
   0.16034167  0.16034167  0.09811617       0.002
   0.18038438  0.16034167  0.09811617       0.002
   0.18038438  0.18038438  0.09811617       0.000
   0.00000000  0.00000000  0.11773940       0.000
   0.02004271  0.00000000  0.11773940       0.002
   0.04008542  0.00000000  0.11773940       0.002
   0.06012813  0.00000000  0.11773940       0.002
   0.08017084  0.00000000  0.11773940       0.002
   0.10021355  0.00000000  0.11773940       0.002
   0.12025626  0.00000000  0.11773940       0.002
   0.14029896  0.00000000  0.11773940       0.002
   0.16034167  0.00000000  0.11773940       0.002
   0.18038438  0.00000000  0.11773940       0.001
   0.02004271  0.02004271  0.11773940       0.002
   0.04008542  0.02004271  0.11773940       0.004
   0.06012813  0.02004271  0.11773940       0.004
   0.08017084  0.02004271  0.11773940       0.004
   0.10021355  0.02004271  0.11773940       0.004
   0.12025626  0.02004271  0.11773940       0.004
   0.14029896  0.02004271  0.11773940       0.004
   0.16034167  0.02004271  0.11773940       0.004
   0.18038438  0.02004271  0.11773940       0.002
   0.04008542  0.04008542  0.11773940       0.002
   0.06012813  0.04008542  0.11773940       0.004
   0.08017084  0.04008542  0.11773940       0.004
   0.10021355  0.04008542  0.11773940       0.004
   0.12025626  0.04008542  0.11773940       0.004
   0.14029896  0.04008542  0.11773940       0.004
   0.16034167  0.04008542  0.11773940       0.004
   0.18038438  0.04008542  0.11773940       0.002
   0.06012813  0.06012813  0.11773940       0.002
   0.08017084  0.06012813  0.11773940       0.004
   0.10021355  0.06012813  0.11773940       0.004
   0.12025626  0.06012813  0.11773940       0.004
   0.14029896  0.06012813  0.11773940       0.004
   0.16034167  0.06012813  0.11773940       0.004
   0.18038438  0.06012813  0.11773940       0.002
   0.08017084  0.08017084  0.11773940       0.002
   0.10021355  0.08017084  0.11773940       0.004
   0.12025626  0.08017084  0.11773940       0.004
   0.14029896  0.08017084  0.11773940       0.004
   0.16034167  0.08017084  0.11773940       0.004
   0.18038438  0.08017084  0.11773940       0.002
   0.10021355  0.10021355  0.11773940       0.002
   0.12025626  0.10021355  0.11773940       0.004
   0.14029896  0.10021355  0.11773940       0.004
   0.16034167  0.10021355  0.11773940       0.004
   0.18038438  0.10021355  0.11773940       0.002
   0.12025626  0.12025626  0.11773940       0.002
   0.14029896  0.12025626  0.11773940       0.004
   0.16034167  0.12025626  0.11773940       0.004
   0.18038438  0.12025626  0.11773940       0.002
   0.14029896  0.14029896  0.11773940       0.002
   0.16034167  0.14029896  0.11773940       0.004
   0.18038438  0.14029896  0.11773940       0.002
   0.16034167  0.16034167  0.11773940       0.002
   0.18038438  0.16034167  0.11773940       0.002
   0.18038438  0.18038438  0.11773940       0.000
 
 k-points in reciprocal lattice and weights: K-Spacing Value to Generate K-Mesh: 0.02
   0.00000000  0.00000000  0.00000000       0.000
   0.05555556  0.00000000  0.00000000       0.001
   0.11111111  0.00000000  0.00000000       0.001
   0.16666667  0.00000000  0.00000000       0.001
   0.22222222  0.00000000  0.00000000       0.001
   0.27777778  0.00000000  0.00000000       0.001
   0.33333333  0.00000000  0.00000000       0.001
   0.38888889  0.00000000  0.00000000       0.001
   0.44444444  0.00000000  0.00000000       0.001
   0.50000000  0.00000000  0.00000000       0.000
   0.05555556  0.05555556  0.00000000       0.001
   0.11111111  0.05555556  0.00000000       0.002
   0.16666667  0.05555556  0.00000000       0.002
   0.22222222  0.05555556  0.00000000       0.002
   0.27777778  0.05555556  0.00000000       0.002
   0.33333333  0.05555556  0.00000000       0.002
   0.38888889  0.05555556  0.00000000       0.002
   0.44444444  0.05555556  0.00000000       0.002
   0.50000000  0.05555556  0.00000000       0.001
   0.11111111  0.11111111  0.00000000       0.001
   0.16666667  0.11111111  0.00000000       0.002
   0.22222222  0.11111111  0.00000000       0.002
   0.27777778  0.11111111  0.00000000       0.002
   0.33333333  0.11111111  0.00000000       0.002
   0.38888889  0.11111111  0.00000000       0.002
   0.44444444  0.11111111  0.00000000       0.002
   0.50000000  0.11111111  0.00000000       0.001
   0.16666667  0.16666667  0.00000000       0.001
   0.22222222  0.16666667  0.00000000       0.002
   0.27777778  0.16666667  0.00000000       0.002
   0.33333333  0.16666667  0.00000000       0.002
   0.38888889  0.16666667  0.00000000       0.002
   0.44444444  0.16666667  0.00000000       0.002
   0.50000000  0.16666667  0.00000000       0.001
   0.22222222  0.22222222  0.00000000       0.001
   0.27777778  0.22222222  0.00000000       0.002
   0.33333333  0.22222222  0.00000000       0.002
   0.38888889  0.22222222  0.00000000       0.002
   0.44444444  0.22222222  0.00000000       0.002
   0.50000000  0.22222222  0.00000000       0.001
   0.27777778  0.27777778  0.00000000       0.001
   0.33333333  0.27777778  0.00000000       0.002
   0.38888889  0.27777778  0.00000000       0.002
   0.44444444  0.27777778  0.00000000       0.002
   0.50000000  0.27777778  0.00000000       0.001
   0.33333333  0.33333333  0.00000000       0.001
   0.38888889  0.33333333  0.00000000       0.002
   0.44444444  0.33333333  0.00000000       0.002
   0.50000000  0.33333333  0.00000000       0.001
   0.38888889  0.38888889  0.00000000       0.001
   0.44444444  0.38888889  0.00000000       0.002
   0.50000000  0.38888889  0.00000000       0.001
   0.44444444  0.44444444  0.00000000       0.001
   0.50000000  0.44444444  0.00000000       0.001
   0.50000000  0.50000000  0.00000000       0.000
   0.00000000  0.00000000  0.07692308       0.000
   0.05555556  0.00000000  0.07692308       0.002
   0.11111111  0.00000000  0.07692308       0.002
   0.16666667  0.00000000  0.07692308       0.002
   0.22222222  0.00000000  0.07692308       0.002
   0.27777778  0.00000000  0.07692308       0.002
   0.33333333  0.00000000  0.07692308       0.002
   0.38888889  0.00000000  0.07692308       0.002
   0.44444444  0.00000000  0.07692308       0.002
   0.50000000  0.00000000  0.07692308       0.001
   0.05555556  0.05555556  0.07692308       0.002
   0.11111111  0.05555556  0.07692308       0.004
   0.16666667  0.05555556  0.07692308       0.004
   0.22222222  0.05555556  0.07692308       0.004
   0.27777778  0.05555556  0.07692308       0.004
   0.33333333  0.05555556  0.07692308       0.004
   0.38888889  0.05555556  0.07692308       0.004
   0.44444444  0.05555556  0.07692308       0.004
   0.50000000  0.05555556  0.07692308       0.002
   0.11111111  0.11111111  0.07692308       0.002
   0.16666667  0.11111111  0.07692308       0.004
   0.22222222  0.11111111  0.07692308       0.004
   0.27777778  0.11111111  0.07692308       0.004
   0.33333333  0.11111111  0.07692308       0.004
   0.38888889  0.11111111  0.07692308       0.004
   0.44444444  0.11111111  0.07692308       0.004
   0.50000000  0.11111111  0.07692308       0.002
   0.16666667  0.16666667  0.07692308       0.002
   0.22222222  0.16666667  0.07692308       0.004
   0.27777778  0.16666667  0.07692308       0.004
   0.33333333  0.16666667  0.07692308       0.004
   0.38888889  0.16666667  0.07692308       0.004
   0.44444444  0.16666667  0.07692308       0.004
   0.50000000  0.16666667  0.07692308       0.002
   0.22222222  0.22222222  0.07692308       0.002
   0.27777778  0.22222222  0.07692308       0.004
   0.33333333  0.22222222  0.07692308       0.004
   0.38888889  0.22222222  0.07692308       0.004
   0.44444444  0.22222222  0.07692308       0.004
   0.50000000  0.22222222  0.07692308       0.002
   0.27777778  0.27777778  0.07692308       0.002
   0.33333333  0.27777778  0.07692308       0.004
   0.38888889  0.27777778  0.07692308       0.004
   0.44444444  0.27777778  0.07692308       0.004
   0.50000000  0.27777778  0.07692308       0.002
   0.33333333  0.33333333  0.07692308       0.002
   0.38888889  0.33333333  0.07692308       0.004
   0.44444444  0.33333333  0.07692308       0.004
   0.50000000  0.33333333  0.07692308       0.002
[...]
     11      14.3699      0.00000
     12      14.3699      0.00000
     13      16.0003      0.00000
     14      16.0003      0.00000
     15      25.5147      0.00000
     16      25.5147      0.00000

 k-point   371 :       0.2778    0.2778    0.4615
  band No.  band energies     occupation 
      1       5.1662      2.00000
      2       5.2853      2.00000
      3       6.1836      2.00000
      4       6.3793      2.00000
      5       6.4336      2.00000
      6       6.4898      2.00000
      7       8.3112      2.00000
      8       8.3301      2.00000
      9       9.0957      2.00000
     10       9.2759      2.00000
     11      12.5307     -0.00000
     12      13.0696     -0.00000
     13      20.5002      0.00000
     14      20.9964      0.00000
     15      22.1167      0.00000
     16      23.0565      0.00000

 k-point   372 :       0.3333    0.2778    0.4615
  band No.  band energies     occupation 
      1       5.2637      2.00000
      2       5.2710      2.00000
      3       6.2325      2.00000
      4       6.2373      2.00000
      5       6.3820      2.00000
      6       6.6475      2.00000
      7       8.3614      2.00000
      8       8.4135      2.00000
      9       9.4771      2.00000
     10       9.5756      2.00000
     11      12.9749     -0.00000
     12      13.5031      0.00000
     13      19.5885      0.00000
     14      20.1018      0.00000
     15      22.0962      0.00000
     16      22.8761      0.00000

 k-point   373 :       0.3889    0.2778    0.4615
  band No.  band energies     occupation 
      1       5.1747      2.00000
      2       5.1903      2.00000
      3       6.0794      2.00000
      4       6.0831      2.00000
      5       6.6744      2.00000
      6       6.9324      2.00000
      7       8.3431      2.00000
      8       8.3971      2.00000
      9       9.9511      2.00000
     10       9.9769      2.00000
     11      13.5366      0.00000
     12      14.0706      0.00000
     13      18.1745      0.00000
     14      18.7261      0.00000
     15      22.7099      0.00000
     16      23.3051      0.00000

 k-point   374 :       0.4444    0.2778    0.4615
  band No.  band energies     occupation 
      1       5.0969      2.00000
      2       5.1075      2.00000
      3       5.9739      2.00000
      4       5.9745      2.00000
      5       6.9587      2.00000
      6       7.1123      2.00000
      7       8.3105      2.00000
      8       8.3489      2.00000
      9      10.3009      2.00013
     10      10.3056      2.00016
     11      14.3306      0.00000
     12      14.8704      0.00000
     13      16.7577      0.00000
     14      17.3083      0.00000
     15      23.4872      0.00000
     16      23.9308      0.00000

 k-point   375 :       0.5000    0.2778    0.4615
  band No.  band energies     occupation 
      1       5.0721      2.00000
      2       5.0721      2.00000
      3       5.9370      2.00000
      4       5.9370      2.00000
      5       7.1226      2.00000
      6       7.1226      2.00000
      7       8.3093      2.00000
      8       8.3093      2.00000
      9      10.4267      2.02800
     10      10.4267      2.02800
     11      15.3549      0.00000
     12      15.3549      0.00000
     13      16.0571      0.00000
     14      16.0571      0.00000
     15      24.1929      0.00000
     16      24.1929      0.00000

 k-point   376 :       0.3333    0.3333    0.4615
  band No.  band energies     occupation 
      1       5.4182      2.00000
      2       5.6306      2.00000
      3       6.0281      2.00000
      4       6.1421      2.00000
      5       6.1512      2.00000
      6       6.5248      2.00000
      7       8.5947      2.00000
      8       8.6919      2.00000
      9       9.6771      2.00000
     10       9.7484      2.00000
     11      13.4685      0.00000
     12      13.9609      0.00000
     13      20.0592      0.00000
     14      20.2658      0.00000
     15      20.7492      0.00000
     16      21.6814      0.00000

 k-point   377 :       0.3889    0.3333    0.4615
  band No.  band energies     occupation 
      1       5.4161      2.00000
      2       5.6481      2.00000
      3       5.8330      2.00000
      4       5.9604      2.00000
      5       6.3313      2.00000
      6       6.6643      2.00000
      7       8.6594      2.00000
      8       8.7507      2.00000
      9      10.0515      2.00000
     10      10.0765      2.00000
     11      14.0778      0.00000
     12      14.5537      0.00000
     13      18.8700      0.00000
     14      19.2801      0.00000
     15      21.1829      0.00000
     16      21.7558      0.00000

 k-point   378 :       0.4444    0.3333    0.4615
  band No.  band energies     occupation 
      1       5.3963      2.00000
      2       5.5141      2.00000
      3       5.7403      2.00000
      4       5.8096      2.00000
      5       6.6145      2.00000
      6       6.7968      2.00000
      7       8.6485      2.00000
      8       8.7057      2.00000
      9      10.3702      2.00395
     10      10.3703      2.00397
     11      14.9119      0.00000
     12      15.3783      0.00000
     13      17.4176      0.00000
     14      17.8741      0.00000
     15      22.0002      0.00000
     16      22.3540      0.00000

 k-point   379 :       0.5000    0.3333    0.4615
  band No.  band energies     occupation 
      1       5.4228      2.00000
      2       5.4228      2.00000
      3       5.7336      2.00000
      4       5.7336      2.00000
      5       6.7882      2.00000
      6       6.7882      2.00000
      7       8.6563      2.00000
      8       8.6563      2.00000
      9      10.4849      2.07091
     10      10.4849      2.07091
     11      15.9443      0.00000
     12      15.9443      0.00000
     13      16.6271      0.00000
     14      16.6271      0.00000
     15      22.6009      0.00000
     16      22.6009      0.00000

 k-point   380 :       0.3889    0.3889    0.4615
  band No.  band energies     occupation 
      1       5.4382      2.00000
      2       5.6116      2.00000
      3       5.9350      2.00000
      4       6.0714      2.00000
      5       6.0897      2.00000
      6       6.5874      2.00000
      7       8.7874      2.00000
      8       8.8831      2.00000
      9      10.3183      2.00033
     10      10.3307      2.00063
     11      14.6988      0.00000
     12      15.1343      0.00000
     13      19.5078      0.00000
     14      19.7224      0.00000
     15      19.8296      0.00000
     16      20.4359      0.00000

 k-point   381 :       0.4444    0.3889    0.4615
  band No.  band energies     occupation 
      1       5.3942      2.00000
      2       5.4660      2.00000
      3       5.8902      2.00000
      4       5.9337      2.00000
      5       6.4047      2.00000
      6       6.6300      2.00000
      7       8.7938      2.00000
      8       8.8553      2.00000
      9      10.5943      1.22619
     10      10.5946      1.22166
     11      15.4999      0.00000
     12      15.8929      0.00000
     13      18.2083      0.00000
     14      18.5931      0.00000
     15      20.5300      0.00000
     16      20.7806      0.00000

 k-point   382 :       0.5000    0.3889    0.4615
  band No.  band energies     occupation 
      1       5.3941      2.00000
      2       5.3941      2.00000
      3       5.8741      2.00000
      4       5.8741      2.00000
      5       6.5961      2.00000
      6       6.5961      2.00000
      7       8.8037      2.00000
      8       8.8037      2.00000
      9      10.7025     -0.03735
     10      10.7025     -0.03735
     11      16.3281      0.00000
     12      16.3281      0.00000
     13      17.5438      0.00000
     14      17.5438      0.00000
     15      21.0304      0.00000
     16      21.0304      0.00000

 k-point   383 :       0.4444    0.4444    0.4615
  band No.  band energies     occupation 
      1       5.3063      2.00000
      2       5.3335      2.00000
      3       5.9705      2.00000
      4       6.0378      2.00000
      5       6.4450      2.00000
      6       6.6048      2.00000
      7       8.7972      2.00000
      8       8.8379      2.00000
      9      10.8492     -0.00338
     10      10.8511     -0.00310
     11      16.2240      0.00000
     12      16.5563      0.00000
     13      18.5886      0.00000
     14      19.0982      0.00000
     15      19.5248      0.00000
     16      19.5633      0.00000

 k-point   384 :       0.5000    0.4444    0.4615
  band No.  band energies     occupation 
      1       5.2789      2.00000
      2       5.2789      2.00000
      3       6.0007      2.00000
      4       6.0007      2.00000
      5       6.5751      2.00000
      6       6.5751      2.00000
      7       8.7945      2.00000
      8       8.7945      2.00000
      9      10.9575     -0.00001
     10      10.9575     -0.00001
     11      16.9290      0.00000
     12      16.9290      0.00000
     13      18.2634      0.00000
     14      18.2634      0.00000
     15      19.6778      0.00000
     16      19.6778      0.00000

 k-point   385 :       0.5000    0.5000    0.4615
  band No.  band energies     occupation 
      1       5.2364      2.00000
      2       5.2364      2.00000
      3       6.0181      2.00000
      4       6.0181      2.00000
      5       6.6072      2.00000
      6       6.6072      2.00000
      7       8.7694      2.00000
      8       8.7694      2.00000
      9      11.0661     -0.00000
     10      11.0661     -0.00000
     11      17.5090      0.00000
     12      17.5090      0.00000
     13      18.2372      0.00000
     14      18.2372      0.00000
     15      19.1810      0.00000
     16      19.1810      0.00000


--------------------------------------------------------------------------------------------------------


 soft charge-density along one line, spin component           1
         0         1         2         3         4         5         6         7         8         9
 total charge-density along one line
 
 pseudopotential strength for first ion, spin component:           1
 -2.633  -0.000   0.000   0.000  -0.000  -2.845  -0.000   0.000
 -0.000  -2.675   0.000  -0.000   0.000  -0.000  -2.886   0.000
  0.000   0.000  -2.634   0.000  -0.000   0.000   0.000  -2.846
  0.000  -0.000   0.000  -2.675  -0.000   0.000  -0.000   0.000
 -0.000   0.000  -0.000  -0.000  -2.675  -0.000   0.000  -0.000
 -2.845  -0.000   0.000   0.000  -0.000  -3.038  -0.000   0.000
 -0.000  -2.886   0.000  -0.000   0.000  -0.000  -3.078   0.000
  0.000   0.000  -2.846   0.000  -0.000   0.000   0.000  -3.039
  0.000  -0.000   0.000  -2.886  -0.000   0.000  -0.000   0.000
 -0.000   0.000  -0.000  -0.000  -2.886  -0.000   0.000  -0.000
  0.000  -0.000   0.000   0.000  -0.000   0.000  -0.000   0.000
  0.000  -0.000   0.000   0.000  -0.000   0.000  -0.000   0.000
  0.000   0.000   0.000  -0.000   0.000  -0.000   0.000   0.000
 -0.000  -0.000   0.000   0.000   0.000  -0.000  -0.000   0.000
 -0.000  -0.000   0.000   0.000   0.000  -0.000  -0.000   0.000
 -0.000   0.000   0.000  -0.000   0.000  -0.000   0.000   0.000
 -0.000  -0.000   0.000  -0.000   0.000  -0.000  -0.000   0.000
 -0.000  -0.000   0.000   0.000  -0.000  -0.000  -0.000   0.000
 total augmentation occupancy for first ion, spin component:           1
  4.973   0.000   0.000   0.000  -0.000  -3.156  -0.000  -0.000  -0.000   0.000   0.000   0.000  -0.000   0.000   0.000   0.000
  0.000   4.116   0.000   0.000   0.000  -0.000  -2.970  -0.000   0.000   0.000   0.000   0.000   0.000   0.000   0.000   0.000
  0.000  -0.000   4.945   0.000  -0.000   0.000   0.000  -3.137   0.000   0.000   0.002   0.001   0.000   0.000   0.000   0.000
  0.000  -0.000   0.000   4.116   0.000   0.000   0.000   0.000  -2.970  -0.000   0.000  -0.000   0.000   0.000   0.000  -0.000
 -0.000   0.000   0.000   0.000   4.102   0.000  -0.000  -0.000   0.000  -2.960  -0.000   0.000  -0.000   0.000   0.000  -0.000
 -3.156  -0.000  -0.000   0.000   0.000   3.184  -0.000  -0.000   0.000  -0.000  -0.000   0.000   0.000   0.000   0.000   0.000
  0.000  -2.970  -0.000   0.000   0.000  -0.000   3.489   0.000  -0.000   0.000   0.000   0.000   0.000   0.000   0.000   0.000
  0.000  -0.000  -3.137   0.000   0.000  -0.000   0.000   3.171   0.000  -0.000  -0.001  -0.000   0.000   0.000   0.000   0.000
  0.000   0.000   0.000  -2.970  -0.000   0.000   0.000   0.000   3.489   0.000  -0.000  -0.000   0.000   0.000   0.000   0.000
 -0.000   0.000   0.000  -0.000  -2.960  -0.000   0.000   0.000   0.000   3.483  -0.000  -0.000  -0.000   0.000  -0.000   0.000
  0.000   0.000   0.002   0.000  -0.000   0.000  -0.000  -0.001  -0.000  -0.000   2.518  -0.575   0.000   0.000   0.000   0.000
  0.000   0.000   0.001   0.000   0.000  -0.000   0.000  -0.000  -0.000  -0.000  -0.575   0.148   0.000   0.000   0.000   0.000
 -0.000   0.000   0.000   0.000  -0.000   0.000   0.000   0.000   0.000  -0.000   0.000   0.000   0.290   0.000   0.000  -0.016
  0.000   0.000   0.000   0.000   0.000   0.000   0.000   0.000   0.000   0.000   0.000   0.000  -0.000   0.290   0.000   0.000
  0.000   0.000  -0.000   0.000  -0.000   0.000   0.000   0.000  -0.000   0.000   0.000   0.000   0.000   0.000   0.290   0.000
  0.000   0.000   0.000  -0.000  -0.000   0.000   0.000   0.000   0.000   0.000   0.000   0.000  -0.016   0.000   0.000   0.001
 -0.000   0.000   0.000   0.000  -0.000   0.000   0.000   0.000   0.000   0.000   0.000   0.000   0.000  -0.016  -0.000   0.000
  0.000   0.000   0.000   0.000  -0.000   0.000   0.000   0.000   0.000  -0.000   0.000   0.000  -0.000  -0.000  -0.016  -0.000


------------------------ aborting loop because EDIFF is reached ----------------------------------------


    CHARGE:  cpu time    0.0182: real time    0.0183
    FORLOC:  cpu time    0.0000: real time    0.0000
    FORNL :  cpu time    0.2147: real time    0.2151
    STRESS:  cpu time    0.6234: real time    0.6246
    FORCOR:  cpu time    0.0009: real time    0.0008
    FORHAR:  cpu time    0.0002: real time    0.0002
    MIXING:  cpu time    0.0002: real time    0.0002
    OFIELD:  cpu time    0.0000: real time    0.0000

  FORCE on cell =-STRESS in cart. coord.  units (eV):
  Direction    XX          YY          ZZ          XY          YZ          ZX
  --------------------------------------------------------------------------------------
  Alpha Z   121.77825   121.77825   121.77825
  Ewald    -554.70082  -554.70082  -554.69779     0.00000    -0.00000    -0.00000
  Hartree    42.91917    42.91917    42.92569    -0.00000    -0.00000    -0.00000
  E(xc)     -89.04683   -89.04683   -89.04611    -0.00000    -0.00000    -0.00000
  Local      71.96402    71.96402    71.94670     0.00000    -0.00000    -0.00000
  n-local     0.68182    20.59205    10.74046     1.92264    -1.16059     4.90410
  augment   105.28265   105.28265   105.25253    -0.00000     0.00000     0.00000
  Kinetic   287.59787   294.72037   291.11160     2.25320     0.79698     0.35462
  Fock        0.00000     0.00000     0.00000     0.00000     0.00000     0.00000
  -------------------------------------------------------------------------------------
  Total      -0.00751    -0.00751     0.01132     0.00000     0.00000     0.00000
  in kB      -0.38526    -0.38526     0.58102     0.00000     0.00000     0.00000
  external pressure =       -0.06 kB  Pullay stress =        0.00 kB


 VOLUME and BASIS-vectors are now :
 -----------------------------------------------------------------------------
  energy-cutoff  :      600.00
  volume of cell :       31.22
      direct lattice vectors                 reciprocal lattice vectors
     2.805395479  0.000000000  0.000000000     0.356455982  0.000000000 -0.000000000
     0.000000000  2.805395479  0.000000000    -0.000000000  0.356455982  0.000000000
     0.000000000 -0.000000000  3.967271976    -0.000000000  0.000000000  0.252062376

  length of vectors
     2.805395479  2.805395479  3.967271976     0.356455982  0.356455982  0.252062376


 FORCES acting on ions
    electron-ion (+dipol)            ewald-force                    non-local-force                 convergence-correction
 -----------------------------------------------------------------------------------------------
   -.314E-14 -.397E-14 0.355E-14   0.879E-15 -.412E-15 -.117E-13   -.474E-26 0.355E-26 0.000E+00   -.494E-14 0.191E-14 -.105E-14
   0.111E-12 0.559E-12 -.253E-12   -.206E-14 -.191E-14 0.117E-13   0.546E-26 -.409E-26 0.000E+00   -.274E-15 0.327E-14 0.206E-14
 -----------------------------------------------------------------------------------------------
   0.107E-12 0.555E-12 -.250E-12   -.118E-14 -.232E-14 0.573E-16   0.722E-27 -.541E-27 0.000E+00   -.521E-14 0.517E-14 0.102E-14
 
 
 POSITION                                       TOTAL-FORCE (eV/Angst)
 -----------------------------------------------------------------------------------
     -0.00000     -0.00000      0.00000        -0.000000      0.000000      0.000000
      1.40270      1.40270      1.98364         0.000000     -0.000000     -0.000000
 -----------------------------------------------------------------------------------
    total drift:                                0.000000      0.000000     -0.000000


--------------------------------------------------------------------------------------------------------



  FREE ENERGIE OF THE ION-ELECTRON SYSTEM (eV)
  ---------------------------------------------------
  free  energy   TOTEN  =       -12.19380343 eV

  energy  without entropy=      -12.19148692  energy(sigma->0) =      -12.19303126
 
 d Force = 0.0000000E+00[ 0.000E+00, 0.000E+00]  d Energy = 0.2212887E-05-0.221E-05
 d Force = 0.0000000E+00[ 0.000E+00, 0.000E+00]  d Ewald  =-0.1404676E+00 0.140E+00


--------------------------------------------------------------------------------------------------------


    POTLOK:  cpu time    0.0022: real time    0.0022


--------------------------------------------------------------------------------------------------------


 stress matrix after NEB project (eV)
     -0.00751      0.00000      0.00000
      0.00000     -0.00751      0.00000
     -0.00000      0.00000      0.01132
  FORCES: max atom, RMS     0.000000    0.000000
  FORCE total and by dimension    0.000000    0.000000
  Stress total and by dimension    0.015522    0.011323
 Quasi-Newton relaxation of ions (Broydens 2nd method)
  g(Force)  = 0.231E-61   g(Stress)= 0.116E-05

 retain information from N=  1 steps
 eigenvalues of (default step * inverse Hessian matrix)
  average eigenvalue of G=   1.5473
 eigenvalue spectrum of G is  1.5473


--------------------------------------------------------------------------------------------------------


  
 reached required accuracy - stopping structural energy minimisation
 writing wavefunctions
     LOOP+:  cpu time    7.9819: real time    8.3851
    4ORBIT:  cpu time    0.0000: real time    0.0000

 total amount of memory used by VASP MPI-rank0    33035. kBytes
=======================================================================

   base      :      30000. kBytes
   nonlr-proj:        749. kBytes
   fftplans  :        174. kBytes
   grid      :        225. kBytes
   one-center:         15. kBytes
   wavefun   :       1872. kBytes
 
  
  
 General timing and accounting informations for this job:
 ========================================================
  
                  Total CPU time used (sec):       54.872
                            User time (sec):       37.763
                          System time (sec):       17.109
                         Elapsed time (sec):       56.142
  
                   Maximum memory used (kb):      316980.
                   Average memory used (kb):           0.
  
                          Minor page faults:        38236
                          Major page faults:            5
                 Voluntary context switches:     10619303
