<?xml version="1.0" encoding="ISO-8859-1"?>
<modeling>
 <generator>
  <i name="program" type="string">vasp </i>
  <i name="version" type="string">5.4.4.18Apr17-6-g9f103f2a35  </i>
  <i name="subversion" type="string">(build Nov 06 2023 00:46:14) complex            parallel </i>
  <i name="platform" type="string">LinuxIFC </i>
  <i name="date" type="string">2024 12 20 </i>
  <i name="time" type="string">14:36:02 </i>
 </generator>
 <incar>
  <i type="string" name="SYSTEM">Cu-Bulk calculation RELAX</i>
  <i type="int" name="ISTART">     0</i>
  <i type="string" name="PREC">h</i>
  <i type="string" name="ALGO"> Fast</i>
  <i type="int" name="ICHARG">     2</i>
  <i type="int" name="IBRION">     1</i>
  <i name="EDIFF">      0.00000100</i>
  <i name="EDIFFG">     -0.01000000</i>
  <i type="int" name="NSW">   200</i>
  <i type="int" name="ISIF">     3</i>
  <i name="ENCUT">    600.00000000</i>
  <i name="POTIM">      0.10000000</i>
  <i type="string" name="LREAL">Auto</i>
  <i type="int" name="ISMEAR">     1</i>
  <i name="SIGMA">      0.10000000</i>
  <v type="int" name="KPOINT_BSE">    -1     0     0     0</v>
 </incar>
 <structure name="primitive_cell" >
  <crystal>
   <varray name="basis" >
    <v>      -1.38592929       1.38592929       1.96000000 </v>
    <v>       1.38592929       1.38592929       1.96000000 </v>
    <v>       0.00000000       2.77185858       0.00000000 </v>
   </varray>
   <i name="volume">     15.05907200 </i>
   <varray name="rec_basis" >
    <v>      -0.36076877       0.00000000       0.25510204 </v>
    <v>       0.36076877       0.00000000       0.25510204 </v>
    <v>       0.00000000       0.36076877      -0.25510204 </v>
   </varray>
  </crystal>
  <varray name="positions" >
   <v>       0.00000000       0.00000000       0.00000000 </v>
  </varray>
 </structure>
 <varray name="primitive_index" >
  <v type="int" >        1 </v>
 </varray>
 <kpoints>
  <generation param="Gamma">
   <v type="int" name="divisions">      18       18       13 </v>
   <v name="usershift">      0.00000000       0.00000000       0.00000000 </v>
   <v name="genvec1">      0.05555556       0.00000000       0.00000000 </v>
   <v name="genvec2">      0.00000000       0.05555556       0.00000000 </v>
   <v name="genvec3">      0.00000000       0.00000000       0.07692308 </v>
   <v name="shift">      0.00000000       0.00000000       0.00000000 </v>
  </generation>
  <varray name="kpointlist" >
   <v>       0.00000000       0.00000000       0.00000000 </v>
   <v>       0.05555556       0.00000000       0.00000000 </v>
   <v>       0.11111111       0.00000000       0.00000000 </v>
   <v>       0.16666667       0.00000000       0.00000000 </v>
   <v>       0.22222222       0.00000000       0.00000000 </v>
   <v>       0.27777778       0.00000000       0.00000000 </v>
   <v>       0.33333333       0.00000000       0.00000000 </v>
   <v>       0.38888889       0.00000000       0.00000000 </v>
   <v>       0.44444444       0.00000000       0.00000000 </v>
   <v>       0.50000000       0.00000000       0.00000000 </v>
   <v>       0.05555556       0.05555556       0.00000000 </v>
   <v>       0.11111111       0.05555556       0.00000000 </v>
   <v>       0.16666667       0.05555556       0.00000000 </v>
   <v>       0.22222222       0.05555556       0.00000000 </v>
   <v>       0.27777778       0.05555556       0.00000000 </v>
   <v>       0.33333333       0.05555556       0.00000000 </v>
   <v>       0.38888889       0.05555556       0.00000000 </v>
   <v>       0.44444444       0.05555556       0.00000000 </v>
   <v>       0.50000000       0.05555556       0.00000000 </v>
   <v>       0.11111111       0.11111111       0.00000000 </v>
   <v>       0.16666667       0.11111111       0.00000000 </v>
   <v>       0.22222222       0.11111111       0.00000000 </v>
   <v>       0.27777778       0.11111111       0.00000000 </v>
   <v>       0.33333333       0.11111111       0.00000000 </v>
   <v>       0.38888889       0.11111111       0.00000000 </v>
   <v>       0.44444444       0.11111111       0.00000000 </v>
   <v>       0.50000000       0.11111111       0.00000000 </v>
   <v>       0.16666667       0.16666667       0.00000000 </v>
   <v>       0.22222222       0.16666667       0.00000000 </v>
   <v>       0.27777778       0.16666667       0.00000000 </v>
   <v>       0.33333333       0.16666667       0.00000000 </v>
   <v>       0.38888889       0.16666667       0.00000000 </v>
   <v>       0.44444444       0.16666667       0.00000000 </v>
   <v>       0.50000000       0.16666667       0.00000000 </v>
   <v>       0.22222222       0.22222222       0.00000000 </v>
   <v>       0.27777778       0.22222222       0.00000000 </v>
   <v>       0.33333333       0.22222222       0.00000000 </v>
   <v>       0.38888889       0.22222222       0.00000000 </v>
   <v>       0.44444444       0.22222222       0.00000000 </v>
   <v>       0.50000000       0.22222222       0.00000000 </v>
   <v>       0.27777778       0.27777778       0.00000000 </v>
   <v>       0.33333333       0.27777778       0.00000000 </v>
   <v>       0.38888889       0.27777778       0.00000000 </v>
   <v>       0.44444444       0.27777778       0.00000000 </v>
   <v>       0.50000000       0.27777778       0.00000000 </v>
   <v>       0.33333333       0.33333333       0.00000000 </v>
   <v>       0.38888889       0.33333333       0.00000000 </v>
   <v>       0.44444444       0.33333333       0.00000000 </v>
   <v>       0.50000000       0.33333333       0.00000000 </v>
   <v>       0.38888889       0.38888889       0.00000000 </v>
   <v>       0.44444444       0.38888889       0.00000000 </v>
   <v>       0.50000000       0.38888889       0.00000000 </v>
   <v>       0.44444444       0.44444444       0.00000000 </v>
   <v>       0.50000000       0.44444444       0.00000000 </v>
   <v>       0.50000000       0.50000000       0.00000000 </v>
   <v>       0.00000000       0.00000000       0.07692308 </v>
   <v>       0.05555556       0.00000000       0.07692308 </v>
   <v>       0.11111111       0.00000000       0.07692308 </v>
   <v>       0.16666667       0.00000000       0.07692308 </v>
   <v>       0.22222222       0.00000000       0.07692308 </v>
   <v>       0.27777778       0.00000000       0.07692308 </v>
   <v>       0.33333333       0.00000000       0.07692308 </v>
   <v>       0.38888889       0.00000000       0.07692308 </v>
   <v>       0.44444444       0.00000000       0.07692308 </v>
   <v>       0.50000000       0.00000000       0.07692308 </v>
   <v>       0.05555556       0.05555556       0.07692308 </v>
   <v>       0.11111111       0.05555556       0.07692308 </v>
   <v>       0.16666667       0.05555556       0.07692308 </v>
   <v>       0.22222222       0.05555556       0.07692308 </v>
   <v>       0.27777778       0.05555556       0.07692308 </v>
   <v>       0.33333333       0.05555556       0.07692308 </v>
   <v>       0.38888889       0.05555556       0.07692308 </v>
   <v>       0.44444444       0.05555556       0.07692308 </v>
   <v>       0.50000000       0.05555556       0.07692308 </v>
   <v>       0.11111111       0.11111111       0.07692308 </v>
   <v>       0.16666667       0.11111111       0.07692308 </v>
   <v>       0.22222222       0.11111111       0.07692308 </v>
   <v>       0.27777778       0.11111111       0.07692308 </v>
   <v>       0.33333333       0.11111111       0.07692308 </v>
   <v>       0.38888889       0.11111111       0.07692308 </v>
   <v>       0.44444444       0.11111111       0.07692308 </v>
   <v>       0.50000000       0.11111111       0.07692308 </v>
   <v>       0.16666667       0.16666667       0.07692308 </v>
   <v>       0.22222222       0.16666667       0.07692308 </v>
   <v>       0.27777778       0.16666667       0.07692308 </v>
   <v>       0.33333333       0.16666667       0.07692308 </v>
   <v>       0.38888889       0.16666667       0.07692308 </v>
   <v>       0.44444444       0.16666667       0.07692308 </v>
   <v>       0.50000000       0.16666667       0.07692308 </v>
   <v>       0.22222222       0.22222222       0.07692308 </v>
   <v>       0.27777778       0.22222222       0.07692308 </v>
   <v>       0.33333333       0.22222222       0.07692308 </v>
   <v>       0.38888889       0.22222222       0.07692308 </v>
   <v>       0.44444444       0.22222222       0.07692308 </v>
   <v>       0.50000000       0.22222222       0.07692308 </v>
   <v>       0.27777778       0.27777778       0.07692308 </v>
   <v>       0.33333333       0.27777778       0.07692308 </v>
   <v>       0.38888889       0.27777778       0.07692308 </v>
   <v>       0.44444444       0.27777778       0.07692308 </v>
   <v>       0.50000000       0.27777778       0.07692308 </v>
   <v>       0.33333333       0.33333333       0.07692308 </v>
   <v>       0.38888889       0.33333333       0.07692308 </v>
   <v>       0.44444444       0.33333333       0.07692308 </v>
   <v>       0.50000000       0.33333333       0.07692308 </v>
   <v>       0.38888889       0.38888889       0.07692308 </v>
   <v>       0.44444444       0.38888889       0.07692308 </v>
   <v>       0.50000000       0.38888889       0.07692308 </v>
   <v>       0.44444444       0.44444444       0.07692308 </v>
   <v>       0.50000000       0.44444444       0.07692308 </v>
   <v>       0.50000000       0.50000000       0.07692308 </v>
   <v>       0.00000000       0.00000000       0.15384615 </v>
   <v>       0.05555556       0.00000000       0.15384615 </v>
   <v>       0.11111111       0.00000000       0.15384615 </v>
   <v>       0.16666667       0.00000000       0.15384615 </v>
   <v>       0.22222222       0.00000000       0.15384615 </v>
   <v>       0.27777778       0.00000000       0.15384615 </v>
   <v>       0.33333333       0.00000000       0.15384615 </v>
   <v>       0.38888889       0.00000000       0.15384615 </v>
   <v>       0.44444444       0.00000000       0.15384615 </v>
   <v>       0.50000000       0.00000000       0.15384615 </v>
   <v>       0.05555556       0.05555556       0.15384615 </v>
   <v>       0.11111111       0.05555556       0.15384615 </v>
   <v>       0.16666667       0.05555556       0.15384615 </v>
   <v>       0.22222222       0.05555556       0.15384615 </v>
   <v>       0.27777778       0.05555556       0.15384615 </v>
   <v>       0.33333333       0.05555556       0.15384615 </v>
   <v>       0.38888889       0.05555556       0.15384615 </v>
   <v>       0.44444444       0.05555556       0.15384615 </v>
   <v>       0.50000000       0.05555556       0.15384615 </v>
   <v>       0.11111111       0.11111111       0.15384615 </v>
   <v>       0.16666667       0.11111111       0.15384615 </v>
   <v>       0.22222222       0.11111111       0.15384615 </v>
   <v>       0.27777778       0.11111111       0.15384615 </v>
   <v>       0.33333333       0.11111111       0.15384615 </v>
   <v>       0.38888889       0.11111111       0.15384615 </v>
   <v>       0.44444444       0.11111111       0.15384615 </v>
   <v>       0.50000000       0.11111111       0.15384615 </v>
   <v>       0.16666667       0.16666667       0.15384615 </v>
   <v>       0.22222222       0.16666667       0.15384615 </v>
   <v>       0.27777778       0.16666667       0.15384615 </v>
   <v>       0.33333333       0.16666667       0.15384615 </v>
   <v>       0.38888889       0.16666667       0.15384615 </v>
   <v>       0.44444444       0.16666667       0.15384615 </v>
   <v>       0.50000000       0.16666667       0.15384615 </v>
   <v>       0.22222222       0.22222222       0.15384615 </v>
   <v>       0.27777778       0.22222222       0.15384615 </v>
   <v>       0.33333333       0.22222222       0.15384615 </v>
   <v>       0.38888889       0.22222222       0.15384615 </v>
   <v>       0.44444444       0.22222222       0.15384615 </v>
   <v>       0.50000000       0.22222222       0.15384615 </v>
   <v>       0.27777778       0.27777778       0.15384615 </v>
   <v>       0.33333333       0.27777778       0.15384615 </v>
   <v>       0.38888889       0.27777778       0.15384615 </v>
   <v>       0.44444444       0.27777778       0.15384615 </v>
   <v>       0.50000000       0.27777778       0.15384615 </v>
   <v>       0.33333333       0.33333333       0.15384615 </v>
   <v>       0.38888889       0.33333333       0.15384615 </v>
   <v>       0.44444444       0.33333333       0.15384615 </v>
   <v>       0.50000000       0.33333333       0.15384615 </v>
   <v>       0.38888889       0.38888889       0.15384615 </v>
   <v>       0.44444444       0.38888889       0.15384615 </v>
   <v>       0.50000000       0.38888889       0.15384615 </v>
   <v>       0.44444444       0.44444444       0.15384615 </v>
   <v>       0.50000000       0.44444444       0.15384615 </v>
   <v>       0.50000000       0.50000000       0.15384615 </v>
   <v>       0.00000000       0.00000000       0.23076923 </v>
   <v>       0.05555556       0.00000000       0.23076923 </v>
   <v>       0.11111111       0.00000000       0.23076923 </v>
   <v>       0.16666667       0.00000000       0.23076923 </v>
   <v>       0.22222222       0.00000000       0.23076923 </v>
   <v>       0.27777778       0.00000000       0.23076923 </v>
   <v>       0.33333333       0.00000000       0.23076923 </v>
   <v>       0.38888889       0.00000000       0.23076923 </v>
   <v>       0.44444444       0.00000000       0.23076923 </v>
   <v>       0.50000000       0.00000000       0.23076923 </v>
   <v>       0.05555556       0.05555556       0.23076923 </v>
   <v>       0.11111111       0.05555556       0.23076923 </v>
   <v>       0.16666667       0.05555556       0.23076923 </v>
   <v>       0.22222222       0.05555556       0.23076923 </v>
   <v>       0.27777778       0.05555556       0.23076923 </v>
   <v>       0.33333333       0.05555556       0.23076923 </v>
   <v>       0.38888889       0.05555556       0.23076923 </v>
   <v>       0.44444444       0.05555556       0.23076923 </v>
   <v>       0.50000000       0.05555556       0.23076923 </v>
   <v>       0.11111111       0.11111111       0.23076923 </v>
   <v>       0.16666667       0.11111111       0.23076923 </v>
   <v>       0.22222222       0.11111111       0.23076923 </v>
   <v>       0.27777778       0.11111111       0.23076923 </v>
   <v>       0.33333333       0.11111111       0.23076923 </v>
   <v>       0.38888889       0.11111111       0.23076923 </v>
   <v>       0.44444444       0.11111111       0.23076923 </v>
   <v>       0.50000000       0.11111111       0.23076923 </v>
   <v>       0.16666667       0.16666667       0.23076923 </v>
   <v>       0.22222222       0.16666667       0.23076923 </v>
   <v>       0.27777778       0.16666667       0.23076923 </v>
   <v>       0.33333333       0.16666667       0.23076923 </v>
   <v>       0.38888889       0.16666667       0.23076923 </v>
   <v>       0.44444444       0.16666667       0.23076923 </v>
   <v>       0.50000000       0.16666667       0.23076923 </v>
   <v>       0.22222222       0.22222222       0.23076923 </v>
   <v>       0.27777778       0.22222222       0.23076923 </v>
   <v>       0.33333333       0.22222222       0.23076923 </v>
   <v>       0.38888889       0.22222222       0.23076923 </v>
   <v>       0.44444444       0.22222222       0.23076923 </v>
   <v>       0.50000000       0.22222222       0.23076923 </v>
   <v>       0.27777778       0.27777778       0.23076923 </v>
   <v>       0.33333333       0.27777778       0.23076923 </v>
   <v>       0.38888889       0.27777778       0.23076923 </v>
   <v>       0.44444444       0.27777778       0.23076923 </v>
   <v>       0.50000000       0.27777778       0.23076923 </v>
   <v>       0.33333333       0.33333333       0.23076923 </v>
   <v>       0.38888889       0.33333333       0.23076923 </v>
   <v>       0.44444444       0.33333333       0.23076923 </v>
   <v>       0.50000000       0.33333333       0.23076923 </v>
   <v>       0.38888889       0.38888889       0.23076923 </v>
   <v>       0.44444444       0.38888889       0.23076923 </v>
   <v>       0.50000000       0.38888889       0.23076923 </v>
   <v>       0.44444444       0.44444444       0.23076923 </v>
   <v>       0.50000000       0.44444444       0.23076923 </v>
   <v>       0.50000000       0.50000000       0.23076923 </v>
   <v>       0.00000000       0.00000000       0.30769231 </v>
   <v>       0.05555556       0.00000000       0.30769231 </v>
   <v>       0.11111111       0.00000000       0.30769231 </v>
   <v>       0.16666667       0.00000000       0.30769231 </v>
   <v>       0.22222222       0.00000000       0.30769231 </v>
   <v>       0.27777778       0.00000000       0.30769231 </v>
   <v>       0.33333333       0.00000000       0.30769231 </v>
   <v>       0.38888889       0.00000000       0.30769231 </v>
   <v>       0.44444444       0.00000000       0.30769231 </v>
   <v>       0.50000000       0.00000000       0.30769231 </v>
   <v>       0.05555556       0.05555556       0.30769231 </v>
   <v>       0.11111111       0.05555556       0.30769231 </v>
   <v>       0.16666667       0.05555556       0.30769231 </v>
   <v>       0.22222222       0.05555556       0.30769231 </v>
   <v>       0.27777778       0.05555556       0.30769231 </v>
   <v>       0.33333333       0.05555556       0.30769231 </v>
   <v>       0.38888889       0.05555556       0.30769231 </v>
   <v>       0.44444444       0.05555556       0.30769231 </v>
   <v>       0.50000000       0.05555556       0.30769231 </v>
   <v>       0.11111111       0.11111111       0.30769231 </v>
   <v>       0.16666667       0.11111111       0.30769231 </v>
   <v>       0.22222222       0.11111111       0.30769231 </v>
   <v>       0.27777778       0.11111111       0.30769231 </v>
   <v>       0.33333333       0.11111111       0.30769231 </v>
   <v>       0.38888889       0.11111111       0.30769231 </v>
   <v>       0.44444444       0.11111111       0.30769231 </v>
   <v>       0.50000000       0.11111111       0.30769231 </v>
   <v>       0.16666667       0.16666667       0.30769231 </v>
   <v>       0.22222222       0.16666667       0.30769231 </v>
   <v>       0.27777778       0.16666667       0.30769231 </v>
   <v>       0.33333333       0.16666667       0.30769231 </v>
   <v>       0.38888889       0.16666667       0.30769231 </v>
   <v>       0.44444444       0.16666667       0.30769231 </v>
   <v>       0.50000000       0.16666667       0.30769231 </v>
   <v>       0.22222222       0.22222222       0.30769231 </v>
   <v>       0.27777778       0.22222222       0.30769231 </v>
   <v>       0.33333333       0.22222222       0.30769231 </v>
   <v>       0.38888889       0.22222222       0.30769231 </v>
   <v>       0.44444444       0.22222222       0.30769231 </v>
   <v>       0.50000000       0.22222222       0.30769231 </v>
   <v>       0.27777778       0.27777778       0.30769231 </v>
   <v>       0.33333333       0.27777778       0.30769231 </v>
   <v>       0.38888889       0.27777778       0.30769231 </v>
   <v>       0.44444444       0.27777778       0.30769231 </v>
   <v>       0.50000000       0.27777778       0.30769231 </v>
   <v>       0.33333333       0.33333333       0.30769231 </v>
   <v>       0.38888889       0.33333333       0.30769231 </v>
   <v>       0.44444444       0.33333333       0.30769231 </v>
   <v>       0.50000000       0.33333333       0.30769231 </v>
   <v>       0.38888889       0.38888889       0.30769231 </v>
   <v>       0.44444444       0.38888889       0.30769231 </v>
   <v>       0.50000000       0.38888889       0.30769231 </v>
   <v>       0.44444444       0.44444444       0.30769231 </v>
   <v>       0.50000000       0.44444444       0.30769231 </v>
   <v>       0.50000000       0.50000000       0.30769231 </v>
   <v>       0.00000000       0.00000000       0.38461538 </v>
   <v>       0.05555556       0.00000000       0.38461538 </v>
   <v>       0.11111111       0.00000000       0.38461538 </v>
   <v>       0.16666667       0.00000000       0.38461538 </v>
   <v>       0.22222222       0.00000000       0.38461538 </v>
   <v>       0.27777778       0.00000000       0.38461538 </v>
   <v>       0.33333333       0.00000000       0.38461538 </v>
   <v>       0.38888889       0.00000000       0.38461538 </v>
   <v>       0.44444444       0.00000000       0.38461538 </v>
   <v>       0.50000000       0.00000000       0.38461538 </v>
   <v>       0.05555556       0.05555556       0.38461538 </v>
   <v>       0.11111111       0.05555556       0.38461538 </v>
   <v>       0.16666667       0.05555556       0.38461538 </v>
   <v>       0.22222222       0.05555556       0.38461538 </v>
   <v>       0.27777778       0.05555556       0.38461538 </v>
   <v>       0.33333333       0.05555556       0.38461538 </v>
   <v>       0.38888889       0.05555556       0.38461538 </v>
   <v>       0.44444444       0.05555556       0.38461538 </v>
   <v>       0.50000000       0.05555556       0.38461538 </v>
   <v>       0.11111111       0.11111111       0.38461538 </v>
   <v>       0.16666667       0.11111111       0.38461538 </v>
   <v>       0.22222222       0.11111111       0.38461538 </v>
   <v>       0.27777778       0.11111111       0.38461538 </v>
   <v>       0.33333333       0.11111111       0.38461538 </v>
   <v>       0.38888889       0.11111111       0.38461538 </v>
   <v>       0.44444444       0.11111111       0.38461538 </v>
   <v>       0.50000000       0.11111111       0.38461538 </v>
   <v>       0.16666667       0.16666667       0.38461538 </v>
   <v>       0.22222222       0.16666667       0.38461538 </v>
   <v>       0.27777778       0.16666667       0.38461538 </v>
   <v>       0.33333333       0.16666667       0.38461538 </v>
   <v>       0.38888889       0.16666667       0.38461538 </v>
   <v>       0.44444444       0.16666667       0.38461538 </v>
   <v>       0.50000000       0.16666667       0.38461538 </v>
   <v>       0.22222222       0.22222222       0.38461538 </v>
   <v>       0.27777778       0.22222222       0.38461538 </v>
   <v>       0.33333333       0.22222222       0.38461538 </v>
   <v>       0.38888889       0.22222222       0.38461538 </v>
   <v>       0.44444444       0.22222222       0.38461538 </v>
   <v>       0.50000000       0.22222222       0.38461538 </v>
   <v>       0.27777778       0.27777778       0.38461538 </v>
   <v>       0.33333333       0.27777778       0.38461538 </v>
   <v>       0.38888889       0.27777778       0.38461538 </v>
   <v>       0.44444444       0.27777778       0.38461538 </v>
   <v>       0.50000000       0.27777778       0.38461538 </v>
   <v>       0.33333333       0.33333333       0.38461538 </v>
   <v>       0.38888889       0.33333333       0.38461538 </v>
   <v>       0.44444444       0.33333333       0.38461538 </v>
   <v>       0.50000000       0.33333333       0.38461538 </v>
   <v>       0.38888889       0.38888889       0.38461538 </v>
   <v>       0.44444444       0.38888889       0.38461538 </v>
   <v>       0.50000000       0.38888889       0.38461538 </v>
   <v>       0.44444444       0.44444444       0.38461538 </v>
   <v>       0.50000000       0.44444444       0.38461538 </v>
   <v>       0.50000000       0.50000000       0.38461538 </v>
   <v>       0.00000000       0.00000000       0.46153846 </v>
   <v>       0.05555556       0.00000000       0.46153846 </v>
   <v>       0.11111111       0.00000000       0.46153846 </v>
   <v>       0.16666667       0.00000000       0.46153846 </v>
   <v>       0.22222222       0.00000000       0.46153846 </v>
   <v>       0.27777778       0.00000000       0.46153846 </v>
   <v>       0.33333333       0.00000000       0.46153846 </v>
   <v>       0.38888889       0.00000000       0.46153846 </v>
   <v>       0.44444444       0.00000000       0.46153846 </v>
   <v>       0.50000000       0.00000000       0.46153846 </v>
   <v>       0.05555556       0.05555556       0.46153846 </v>
   <v>       0.11111111       0.05555556       0.46153846 </v>
   <v>       0.16666667       0.05555556       0.46153846 </v>
   <v>       0.22222222       0.05555556       0.46153846 </v>
   <v>       0.27777778       0.05555556       0.46153846 </v>
   <v>       0.33333333       0.05555556       0.46153846 </v>
   <v>       0.38888889       0.05555556       0.46153846 </v>
   <v>       0.44444444       0.05555556       0.46153846 </v>
   <v>       0.50000000       0.05555556       0.46153846 </v>
   <v>       0.11111111       0.11111111       0.46153846 </v>
   <v>       0.16666667       0.11111111       0.46153846 </v>
   <v>       0.22222222       0.11111111       0.46153846 </v>
   <v>       0.27777778       0.11111111       0.46153846 </v>
   <v>       0.33333333       0.11111111       0.46153846 </v>
   <v>       0.38888889       0.11111111       0.46153846 </v>
   <v>       0.44444444       0.11111111       0.46153846 </v>
   <v>       0.50000000       0.11111111       0.46153846 </v>
   <v>       0.16666667       0.16666667       0.46153846 </v>
   <v>       0.22222222       0.16666667       0.46153846 </v>
   <v>       0.27777778       0.16666667       0.46153846 </v>
   <v>       0.33333333       0.16666667       0.46153846 </v>
   <v>       0.38888889       0.16666667       0.46153846 </v>
   <v>       0.44444444       0.16666667       0.46153846 </v>
   <v>       0.50000000       0.16666667       0.46153846 </v>
   <v>       0.22222222       0.22222222       0.46153846 </v>
   <v>       0.27777778       0.22222222       0.46153846 </v>
   <v>       0.33333333       0.22222222       0.46153846 </v>
   <v>       0.38888889       0.22222222       0.46153846 </v>
   <v>       0.44444444       0.22222222       0.46153846 </v>
   <v>       0.50000000       0.22222222       0.46153846 </v>
   <v>       0.27777778       0.27777778       0.46153846 </v>
   <v>       0.33333333       0.27777778       0.46153846 </v>
   <v>       0.38888889       0.27777778       0.46153846 </v>
   <v>       0.44444444       0.27777778       0.46153846 </v>
   <v>       0.50000000       0.27777778       0.46153846 </v>
   <v>       0.33333333       0.33333333       0.46153846 </v>
   <v>       0.38888889       0.33333333       0.46153846 </v>
   <v>       0.44444444       0.33333333       0.46153846 </v>
   <v>       0.50000000       0.33333333       0.46153846 </v>
   <v>       0.38888889       0.38888889       0.46153846 </v>
   <v>       0.44444444       0.38888889       0.46153846 </v>
   <v>       0.50000000       0.38888889       0.46153846 </v>
   <v>       0.44444444       0.44444444       0.46153846 </v>
   <v>       0.50000000       0.44444444       0.46153846 </v>
   <v>       0.50000000       0.50000000       0.46153846 </v>
  </varray>
  <varray name="weights" >
   <v>       0.00023742 </v>
   <v>       0.00094967 </v>
   <v>       0.00094967 </v>
   <v>       0.00094967 </v>
   <v>       0.00094967 </v>
   <v>       0.00094967 </v>
   <v>       0.00094967 </v>
   <v>       0.00094967 </v>
   <v>       0.00094967 </v>
   <v>       0.00047483 </v>
   <v>       0.00094967 </v>
   <v>       0.00189934 </v>
   <v>       0.00189934 </v>
   <v>       0.00189934 </v>
   <v>       0.00189934 </v>
   <v>       0.00189934 </v>
   <v>       0.00189934 </v>
   <v>       0.00189934 </v>
   <v>       0.00094967 </v>
   <v>       0.00094967 </v>
   <v>       0.00189934 </v>
   <v>       0.00189934 </v>
   <v>       0.00189934 </v>
   <v>       0.00189934 </v>
   <v>       0.00189934 </v>
   <v>       0.00189934 </v>
   <v>       0.00094967 </v>
   <v>       0.00094967 </v>
   <v>       0.00189934 </v>
   <v>       0.00189934 </v>
   <v>       0.00189934 </v>
   <v>       0.00189934 </v>
   <v>       0.00189934 </v>
   <v>       0.00094967 </v>
   <v>       0.00094967 </v>
   <v>       0.00189934 </v>
   <v>       0.00189934 </v>
   <v>       0.00189934 </v>
   <v>       0.00189934 </v>
   <v>       0.00094967 </v>
   <v>       0.00094967 </v>
   <v>       0.00189934 </v>
   <v>       0.00189934 </v>
   <v>       0.00189934 </v>
   <v>       0.00094967 </v>
   <v>       0.00094967 </v>
   <v>       0.00189934 </v>
   <v>       0.00189934 </v>
   <v>       0.00094967 </v>
   <v>       0.00094967 </v>
   <v>       0.00189934 </v>
   <v>       0.00094967 </v>
   <v>       0.00094967 </v>
   <v>       0.00094967 </v>
   <v>       0.00023742 </v>
   <v>       0.00047483 </v>
   <v>       0.00189934 </v>
   <v>       0.00189934 </v>
   <v>       0.00189934 </v>
   <v>       0.00189934 </v>
   <v>       0.00189934 </v>
   <v>       0.00189934 </v>
   <v>       0.00189934 </v>
   <v>       0.00189934 </v>
   <v>       0.00094967 </v>
   <v>       0.00189934 </v>
   <v>       0.00379867 </v>
   <v>       0.00379867 </v>
   <v>       0.00379867 </v>
   <v>       0.00379867 </v>
   <v>       0.00379867 </v>
   <v>       0.00379867 </v>
   <v>       0.00379867 </v>
   <v>       0.00189934 </v>
   <v>       0.00189934 </v>
   <v>       0.00379867 </v>
   <v>       0.00379867 </v>
   <v>       0.00379867 </v>
   <v>       0.00379867 </v>
   <v>       0.00379867 </v>
   <v>       0.00379867 </v>
   <v>       0.00189934 </v>
   <v>       0.00189934 </v>
   <v>       0.00379867 </v>
   <v>       0.00379867 </v>
   <v>       0.00379867 </v>
   <v>       0.00379867 </v>
   <v>       0.00379867 </v>
   <v>       0.00189934 </v>
   <v>       0.00189934 </v>
   <v>       0.00379867 </v>
   <v>       0.00379867 </v>
   <v>       0.00379867 </v>
   <v>       0.00379867 </v>
   <v>       0.00189934 </v>
   <v>       0.00189934 </v>
   <v>       0.00379867 </v>
   <v>       0.00379867 </v>
   <v>       0.00379867 </v>
   <v>       0.00189934 </v>
   <v>       0.00189934 </v>
   <v>       0.00379867 </v>
   <v>       0.00379867 </v>
   <v>       0.00189934 </v>
   <v>       0.00189934 </v>
   <v>       0.00379867 </v>
   <v>       0.00189934 </v>
   <v>       0.00189934 </v>
   <v>       0.00189934 </v>
   <v>       0.00047483 </v>
   <v>       0.00047483 </v>
   <v>       0.00189934 </v>
   <v>       0.00189934 </v>
   <v>       0.00189934 </v>
   <v>       0.00189934 </v>
   <v>       0.00189934 </v>
   <v>       0.00189934 </v>
   <v>       0.00189934 </v>
   <v>       0.00189934 </v>
   <v>       0.00094967 </v>
   <v>       0.00189934 </v>
   <v>       0.00379867 </v>
   <v>       0.00379867 </v>
   <v>       0.00379867 </v>
   <v>       0.00379867 </v>
   <v>       0.00379867 </v>
   <v>       0.00379867 </v>
   <v>       0.00379867 </v>
   <v>       0.00189934 </v>
   <v>       0.00189934 </v>
   <v>       0.00379867 </v>
   <v>       0.00379867 </v>
   <v>       0.00379867 </v>
   <v>       0.00379867 </v>
   <v>       0.00379867 </v>
   <v>       0.00379867 </v>
   <v>       0.00189934 </v>
   <v>       0.00189934 </v>
   <v>       0.00379867 </v>
   <v>       0.00379867 </v>
   <v>       0.00379867 </v>
   <v>       0.00379867 </v>
   <v>       0.00379867 </v>
   <v>       0.00189934 </v>
   <v>       0.00189934 </v>
   <v>       0.00379867 </v>
   <v>       0.00379867 </v>
   <v>       0.00379867 </v>
   <v>       0.00379867 </v>
   <v>       0.00189934 </v>
   <v>       0.00189934 </v>
   <v>       0.00379867 </v>
   <v>       0.00379867 </v>
   <v>       0.00379867 </v>
   <v>       0.00189934 </v>
   <v>       0.00189934 </v>
   <v>       0.00379867 </v>
   <v>       0.00379867 </v>
   <v>       0.00189934 </v>
   <v>       0.00189934 </v>
   <v>       0.00379867 </v>
   <v>       0.00189934 </v>
   <v>       0.00189934 </v>
   <v>       0.00189934 </v>
   <v>       0.00047483 </v>
   <v>       0.00047483 </v>
   <v>       0.00189934 </v>
   <v>       0.00189934 </v>
   <v>       0.00189934 </v>
   <v>       0.00189934 </v>
   <v>       0.00189934 </v>
   <v>       0.00189934 </v>
   <v>       0.00189934 </v>
   <v>       0.00189934 </v>
   <v>       0.00094967 </v>
   <v>       0.00189934 </v>
   <v>       0.00379867 </v>
   <v>       0.00379867 </v>
   <v>       0.00379867 </v>
   <v>       0.00379867 </v>
   <v>       0.00379867 </v>
   <v>       0.00379867 </v>
   <v>       0.00379867 </v>
   <v>       0.00189934 </v>
   <v>       0.00189934 </v>
   <v>       0.00379867 </v>
   <v>       0.00379867 </v>
   <v>       0.00379867 </v>
   <v>       0.00379867 </v>
   <v>       0.00379867 </v>
   <v>       0.00379867 </v>
   <v>       0.00189934 </v>
   <v>       0.00189934 </v>
   <v>       0.00379867 </v>
   <v>       0.00379867 </v>
   <v>       0.00379867 </v>
   <v>       0.00379867 </v>
   <v>       0.00379867 </v>
   <v>       0.00189934 </v>
   <v>       0.00189934 </v>
   <v>       0.00379867 </v>
   <v>       0.00379867 </v>
   <v>       0.00379867 </v>
   <v>       0.00379867 </v>
   <v>       0.00189934 </v>
   <v>       0.00189934 </v>
   <v>       0.00379867 </v>
   <v>       0.00379867 </v>
   <v>       0.00379867 </v>
   <v>       0.00189934 </v>
   <v>       0.00189934 </v>
   <v>       0.00379867 </v>
   <v>       0.00379867 </v>
   <v>       0.00189934 </v>
   <v>       0.00189934 </v>
   <v>       0.00379867 </v>
   <v>       0.00189934 </v>
   <v>       0.00189934 </v>
   <v>       0.00189934 </v>
   <v>       0.00047483 </v>
   <v>       0.00047483 </v>
   <v>       0.00189934 </v>
   <v>       0.00189934 </v>
   <v>       0.00189934 </v>
   <v>       0.00189934 </v>
   <v>       0.00189934 </v>
   <v>       0.00189934 </v>
   <v>       0.00189934 </v>
   <v>       0.00189934 </v>
   <v>       0.00094967 </v>
   <v>       0.00189934 </v>
   <v>       0.00379867 </v>
   <v>       0.00379867 </v>
   <v>       0.00379867 </v>
   <v>       0.00379867 </v>
   <v>       0.00379867 </v>
   <v>       0.00379867 </v>
   <v>       0.00379867 </v>
   <v>       0.00189934 </v>
   <v>       0.00189934 </v>
   <v>       0.00379867 </v>
   <v>       0.00379867 </v>
   <v>       0.00379867 </v>
   <v>       0.00379867 </v>
   <v>       0.00379867 </v>
   <v>       0.00379867 </v>
   <v>       0.00189934 </v>
   <v>       0.00189934 </v>
   <v>       0.00379867 </v>
   <v>       0.00379867 </v>
   <v>       0.00379867 </v>
   <v>       0.00379867 </v>
   <v>       0.00379867 </v>
   <v>       0.00189934 </v>
   <v>       0.00189934 </v>
   <v>       0.00379867 </v>
   <v>       0.00379867 </v>
   <v>       0.00379867 </v>
   <v>       0.00379867 </v>
   <v>       0.00189934 </v>
   <v>       0.00189934 </v>
   <v>       0.00379867 </v>
   <v>       0.00379867 </v>
   <v>       0.00379867 </v>
   <v>       0.00189934 </v>
   <v>       0.00189934 </v>
   <v>       0.00379867 </v>
   <v>       0.00379867 </v>
   <v>       0.00189934 </v>
   <v>       0.00189934 </v>
   <v>       0.00379867 </v>
   <v>       0.00189934 </v>
   <v>       0.00189934 </v>
   <v>       0.00189934 </v>
   <v>       0.00047483 </v>
   <v>       0.00047483 </v>
   <v>       0.00189934 </v>
   <v>       0.00189934 </v>
   <v>       0.00189934 </v>
   <v>       0.00189934 </v>
   <v>       0.00189934 </v>
   <v>       0.00189934 </v>
   <v>       0.00189934 </v>
   <v>       0.00189934 </v>
   <v>       0.00094967 </v>
   <v>       0.00189934 </v>
   <v>       0.00379867 </v>
   <v>       0.00379867 </v>
   <v>       0.00379867 </v>
   <v>       0.00379867 </v>
   <v>       0.00379867 </v>
   <v>       0.00379867 </v>
   <v>       0.00379867 </v>
   <v>       0.00189934 </v>
   <v>       0.00189934 </v>
   <v>       0.00379867 </v>
   <v>       0.00379867 </v>
   <v>       0.00379867 </v>
   <v>       0.00379867 </v>
   <v>       0.00379867 </v>
   <v>       0.00379867 </v>
   <v>       0.00189934 </v>
   <v>       0.00189934 </v>
   <v>       0.00379867 </v>
   <v>       0.00379867 </v>
   <v>       0.00379867 </v>
   <v>       0.00379867 </v>
   <v>       0.00379867 </v>
   <v>       0.00189934 </v>
   <v>       0.00189934 </v>
   <v>       0.00379867 </v>
   <v>       0.00379867 </v>
   <v>       0.00379867 </v>
   <v>       0.00379867 </v>
   <v>       0.00189934 </v>
   <v>       0.00189934 </v>
   <v>       0.00379867 </v>
   <v>       0.00379867 </v>
   <v>       0.00379867 </v>
   <v>       0.00189934 </v>
   <v>       0.00189934 </v>
   <v>       0.00379867 </v>
   <v>       0.00379867 </v>
   <v>       0.00189934 </v>
   <v>       0.00189934 </v>
   <v>       0.00379867 </v>
   <v>       0.00189934 </v>
   <v>       0.00189934 </v>
   <v>       0.00189934 </v>
   <v>       0.00047483 </v>
   <v>       0.00047483 </v>
   <v>       0.00189934 </v>
   <v>       0.00189934 </v>
   <v>       0.00189934 </v>
   <v>       0.00189934 </v>
   <v>       0.00189934 </v>
   <v>       0.00189934 </v>
   <v>       0.00189934 </v>
   <v>       0.00189934 </v>
   <v>       0.00094967 </v>
   <v>       0.00189934 </v>
   <v>       0.00379867 </v>
   <v>       0.00379867 </v>
   <v>       0.00379867 </v>
   <v>       0.00379867 </v>
   <v>       0.00379867 </v>
   <v>       0.00379867 </v>
   <v>       0.00379867 </v>
   <v>       0.00189934 </v>
   <v>       0.00189934 </v>
   <v>       0.00379867 </v>
   <v>       0.00379867 </v>
   <v>       0.00379867 </v>
   <v>       0.00379867 </v>
   <v>       0.00379867 </v>
   <v>       0.00379867 </v>
   <v>       0.00189934 </v>
   <v>       0.00189934 </v>
   <v>       0.00379867 </v>
   <v>       0.00379867 </v>
   <v>       0.00379867 </v>
   <v>       0.00379867 </v>
   <v>       0.00379867 </v>
   <v>       0.00189934 </v>
   <v>       0.00189934 </v>
   <v>       0.00379867 </v>
   <v>       0.00379867 </v>
   <v>       0.00379867 </v>
   <v>       0.00379867 </v>
   <v>       0.00189934 </v>
   <v>       0.00189934 </v>
   <v>       0.00379867 </v>
   <v>       0.00379867 </v>
   <v>       0.00379867 </v>
   <v>       0.00189934 </v>
   <v>       0.00189934 </v>
   <v>       0.00379867 </v>
   <v>       0.00379867 </v>
   <v>       0.00189934 </v>
   <v>       0.00189934 </v>
   <v>       0.00379867 </v>
   <v>       0.00189934 </v>
   <v>       0.00189934 </v>
   <v>       0.00189934 </v>
   <v>       0.00047483 </v>
  </varray>
 </kpoints>
 <parameters>
  <separator name="general" >
   <i type="string" name="SYSTEM">Cu-Bulk calculation RELAX</i>
   <i type="logical" name="LCOMPAT"> F  </i>
  </separator>
  <separator name="electronic" >
   <i type="string" name="PREC">h</i>
   <i name="ENMAX">    600.00000000</i>
   <i name="ENAUG">    358.96600000</i>
   <i name="EDIFF">      0.00000100</i>
   <i type="int" name="IALGO">    68</i>
   <i type="int" name="IWAVPR">    11</i>
   <i type="int" name="NBANDS">    16</i>
   <i name="NELECT">     20.00000000</i>
   <i type="int" name="TURBO">     0</i>
   <i type="int" name="IRESTART">     0</i>
   <i type="int" name="NREBOOT">     0</i>
   <i type="int" name="NMIN">     0</i>
   <i name="EREF">      0.00000000</i>
   <separator name="electronic smearing" >
    <i type="int" name="ISMEAR">     1</i>
    <i name="SIGMA">      0.10000000</i>
    <i name="KSPACING">      0.50000000</i>
    <i type="logical" name="KGAMMA"> T  </i>
   </separator>
   <separator name="electronic projectors" >
    <i type="logical" name="LREAL"> T  </i>
    <v name="ROPT">     -0.00040000</v>
    <i type="int" name="LMAXPAW">  -100</i>
    <i type="int" name="LMAXMIX">     2</i>
    <i type="logical" name="NLSPLINE"> F  </i>
   </separator>
   <separator name="electronic startup" >
    <i type="int" name="ISTART">     0</i>
    <i type="int" name="ICHARG">     2</i>
    <i type="int" name="INIWAV">     1</i>
   </separator>
   <separator name="electronic spin" >
    <i type="int" name="ISPIN">     1</i>
    <i type="logical" name="LNONCOLLINEAR"> F  </i>
    <v name="MAGMOM">      1.00000000      1.00000000</v>
    <i name="NUPDOWN">     -1.00000000</i>
    <i type="logical" name="LSORBIT"> F  </i>
    <v name="SAXIS">      0.00000000      0.00000000      1.00000000</v>
    <i type="logical" name="LSPIRAL"> F  </i>
    <v name="QSPIRAL">      0.00000000      0.00000000      0.00000000</v>
    <i type="logical" name="LZEROZ"> F  </i>
   </separator>
   <separator name="electronic exchange-correlation" >
    <i type="logical" name="LASPH"> F  </i>
    <i type="logical" name="LMETAGGA"> F  </i>
   </separator>
   <separator name="electronic convergence" >
    <i type="int" name="NELM">    60</i>
    <i type="int" name="NELMDL">    -5</i>
    <i type="int" name="NELMIN">     2</i>
    <i name="ENINI">    600.00000000</i>
    <separator name="electronic convergence detail" >
     <i type="logical" name="LDIAG"> T  </i>
     <i type="logical" name="LSUBROT"> F  </i>
     <i name="WEIMIN">      0.00100000</i>
     <i name="EBREAK">      0.00000002</i>
     <i name="DEPER">      0.30000000</i>
     <i type="int" name="NRMM">     4</i>
     <i name="TIME">      0.40000000</i>
    </separator>
   </separator>
   <separator name="electronic mixer" >
    <i name="AMIX">      0.40000000</i>
    <i name="BMIX">      1.00000000</i>
    <i name="AMIN">      0.10000000</i>
    <i name="AMIX_MAG">      1.60000000</i>
    <i name="BMIX_MAG">      1.00000000</i>
    <separator name="electronic mixer details" >
     <i type="int" name="IMIX">     4</i>
     <i type="logical" name="MIXFIRST"> F  </i>
     <i type="int" name="MAXMIX">   -45</i>
     <i name="WC">    100.00000000</i>
     <i type="int" name="INIMIX">     1</i>
     <i type="int" name="MIXPRE">     1</i>
     <i type="int" name="MREMOVE">     5</i>
    </separator>
   </separator>
   <separator name="electronic dipolcorrection" >
    <i type="logical" name="LDIPOL"> F  </i>
    <i type="logical" name="LMONO"> F  </i>
    <i type="int" name="IDIPOL">     0</i>
    <i name="EPSILON">      1.00000000</i>
    <v name="DIPOL">   -100.00000000   -100.00000000   -100.00000000</v>
    <i name="EFIELD">      0.00000000</i>
   </separator>
  </separator>
  <separator name="grids" >
   <i type="int" name="NGX">    24</i>
   <i type="int" name="NGY">    24</i>
   <i type="int" name="NGZ">    32</i>
   <i type="int" name="NGXF">    24</i>
   <i type="int" name="NGYF">    24</i>
   <i type="int" name="NGZF">    32</i>
   <i type="logical" name="ADDGRID"> F  </i>
  </separator>
  <separator name="ionic" >
   <i type="int" name="NSW">   200</i>
   <i type="int" name="IBRION">     1</i>
   <i type="int" name="MDALGO">     0</i>
   <i type="int" name="ISIF">     3</i>
   <i name="PSTRESS">      0.00000000</i>
   <i name="EDIFFG">     -0.01000000</i>
   <i type="int" name="NFREE">     0</i>
   <i name="POTIM">      0.10000000</i>
   <i name="SMASS">     -3.00000000</i>
   <i name="SCALEE">      1.00000000</i>
  </separator>
  <separator name="ionic md" >
   <i name="TEBEG">      0.00010000</i>
   <i name="TEEND">      0.00010000</i>
   <i type="int" name="NBLOCK">     1</i>
   <i type="int" name="KBLOCK">   200</i>
   <i type="int" name="NPACO">   256</i>
   <i name="APACO">     16.00000000</i>
  </separator>
  <separator name="symmetry" >
   <i type="int" name="ISYM">     2</i>
   <i name="SYMPREC">      0.00001000</i>
  </separator>
  <separator name="dos" >
   <i type="int" name="LORBIT">     0</i>
   <v name="RWIGS">     -1.00000000</v>
   <i type="int" name="NEDOS">   301</i>
   <i name="EMIN">     10.00000000</i>
   <i name="EMAX">    -10.00000000</i>
   <i name="EFERMI">      0.00000000</i>
  </separator>
  <separator name="writing" >
   <i type="int" name="NWRITE">     2</i>
   <i type="logical" name="LWAVE"> T  </i>
   <i type="logical" name="LDOWNSAMPLE"> F  </i>
   <i type="logical" name="LCHARG"> T  </i>
   <i type="logical" name="LPARD"> F  </i>
   <i type="logical" name="LVTOT"> F  </i>
   <i type="logical" name="LVHAR"> F  </i>
   <i type="logical" name="LELF"> F  </i>
   <i type="logical" name="LOPTICS"> F  </i>
   <v name="STM">      0.00000000      0.00000000      0.00000000      0.00000000      0.00000000      0.00000000      0.00000000</v>
  </separator>
  <separator name="performance" >
   <i type="int" name="NPAR">    16</i>
   <i type="int" name="NSIM">     4</i>
   <i type="int" name="NBLK">    -1</i>
   <i type="logical" name="LPLANE"> T  </i>
   <i type="logical" name="LSCALAPACK"> T  </i>
   <i type="logical" name="LSCAAWARE"> F  </i>
   <i type="logical" name="LSCALU"> F  </i>
   <i type="logical" name="LASYNC"> F  </i>
   <i type="logical" name="LORBITALREAL"> F  </i>
  </separator>
  <separator name="miscellaneous" >
   <i type="int" name="IDIOT">     3</i>
   <i type="int" name="ISPECIAL">     0</i>
   <i type="logical" name="LMUSIC"> F  </i>
   <v name="POMASS">    195.08000000</v>
   <v name="DARWINR">      0.00000000</v>
   <v name="DARWINV">      1.00000000</v>
   <i type="logical" name="LCORR"> T  </i>
  </separator>
  <i type="logical" name="GGA_COMPAT"> T  </i>
  <i type="logical" name="LBERRY"> F  </i>
  <i type="int" name="ICORELEVEL">     0</i>
  <i type="logical" name="LDAU"> F  </i>
  <i type="int" name="I_CONSTRAINED_M">     0</i>
  <separator name="electronic exchange-correlation" >
   <i type="string" name="GGA">--</i>
   <i type="int" name="VOSKOWN">     0</i>
   <i type="logical" name="LHFCALC"> F  </i>
   <i type="string" name="PRECFOCK"></i>
   <i type="logical" name="LSYMGRAD"> F  </i>
   <i type="logical" name="LHFONE"> F  </i>
   <i type="logical" name="LRHFCALC"> F  </i>
   <i type="logical" name="LTHOMAS"> F  </i>
   <i type="logical" name="LMODELHF"> F  </i>
   <i name="ENCUT4O">     -1.00000000</i>
   <i type="int" name="EXXOEP">     0</i>
   <i type="int" name="FOURORBIT">     0</i>
   <i name="AEXX">      0.00000000</i>
   <i name="HFALPHA">      0.00000000</i>
   <i name="MCALPHA">      0.00000000</i>
   <i name="ALDAX">      1.00000000</i>
   <i name="AGGAX">      1.00000000</i>
   <i name="ALDAC">      1.00000000</i>
   <i name="AGGAC">      1.00000000</i>
   <i type="int" name="NKREDX">     1</i>
   <i type="int" name="NKREDY">     1</i>
   <i type="int" name="NKREDZ">     1</i>
   <i type="logical" name="SHIFTRED"> F  </i>
   <i type="logical" name="ODDONLY"> F  </i>
   <i type="logical" name="EVENONLY"> F  </i>
   <i type="int" name="LMAXFOCK">     0</i>
   <i type="int" name="NMAXFOCKAE">     0</i>
   <i type="logical" name="LFOCKAEDFT"> F  </i>
   <i name="HFSCREEN">      0.00000000</i>
   <i name="HFSCREENC">      0.00000000</i>
   <i type="int" name="NBANDSGWLOW">     0</i>
  </separator>
  <separator name="vdW DFT" >
   <i type="logical" name="LUSE_VDW"> F  </i>
   <i name="Zab_VDW">     -0.84910000</i>
   <i name="PARAM1">      0.12340000</i>
   <i name="PARAM2">      1.00000000</i>
   <i name="PARAM3">      0.00000000</i>
  </separator>
  <separator name="model GW" >
   <i type="int" name="MODEL_GW">     0</i>
   <i name="MODEL_EPS0">      9.03544320</i>
   <i name="MODEL_ALPHA">      1.00000000</i>
  </separator>
  <separator name="linear response parameters" >
   <i type="logical" name="LEPSILON"> F  </i>
   <i type="logical" name="LRPA"> F  </i>
   <i type="logical" name="LNABLA"> F  </i>
   <i type="logical" name="LVEL"> F  </i>
   <i type="int" name="KINTER">     0</i>
   <i name="CSHIFT">      0.10000000</i>
   <i name="OMEGAMAX">     -1.00000000</i>
   <i name="DEG_THRESHOLD">      0.00200000</i>
   <i name="RTIME">     -0.10000000</i>
   <i name="WPLASMAI">      0.00000000</i>
   <v name="DFIELD">      0.00000000      0.00000000      0.00000000</v>
   <v name="WPLASMA">      0.00000000      0.00000000      0.00000000      0.00000000      0.00000000      0.00000000      0.00000000      0.00000000      0.00000000</v>
  </separator>
  <separator name="orbital magnetization" >
   <i type="logical" name="NUCIND"> F  </i>
   <v name="MAGPOS">      0.00000000      0.00000000      0.00000000</v>
   <i type="logical" name="LNICSALL"> T  </i>
   <i type="logical" name="ORBITALMAG"> F  </i>
   <i type="logical" name="LMAGBLOCH"> F  </i>
   <i type="logical" name="LCHIMAG"> F  </i>
   <i type="logical" name="LGAUGE"> T  </i>
   <i type="int" name="MAGATOM">     0</i>
   <v name="MAGDIPOL">      0.00000000      0.00000000      0.00000000</v>
   <v name="AVECCONST">      0.00000000      0.00000000      0.00000000</v>
  </separator>
  <separator name="response functions" >
   <i type="logical" name="LADDER"> F  </i>
   <i type="logical" name="LRPAFORCE"> F  </i>
   <i type="logical" name="LFXC"> F  </i>
   <i type="logical" name="LHARTREE"> T  </i>
   <i type="int" name="IBSE">     0</i>
   <v type="int" name="KPOINT">    -1     0     0     0</v>
   <i type="logical" name="LTCTE"> F  </i>
   <i type="logical" name="LTETE"> F  </i>
   <i type="logical" name="LTRIPLET"> F  </i>
   <i type="logical" name="LFXCEPS"> F  </i>
   <i type="logical" name="LFXHEG"> F  </i>
   <i type="int" name="NATURALO">     2</i>
   <i type="logical" name="L2ORDER"> F  </i>
   <i type="logical" name="LMP2LT"> F  </i>
   <i type="logical" name="LUSEW"> F  </i>
   <i name="ENCUTGW">     -2.00000000</i>
   <i name="ENCUTGWSOFT">     -2.00000000</i>
   <i name="ENCUTLF">     -1.00000000</i>
   <i type="int" name="LMAXMP2">    -1</i>
   <i name="SCISSOR">      0.00000000</i>
   <i type="int" name="NOMEGA">     0</i>
   <i type="int" name="NOMEGAR">     0</i>
   <i type="int" name="NBANDSGW">    -1</i>
   <i type="int" name="NBANDSO">    -1</i>
   <i type="int" name="NBANDSV">    -1</i>
   <i type="int" name="NELM">     1</i>
   <i type="int" name="NELMHF">     1</i>
   <i type="int" name="DIM">     3</i>
   <i type="int" name="ANTIRES">     0</i>
   <i name="OMEGAMAX">    -30.00000000</i>
   <i name="OMEGAMIN">    -30.00000000</i>
   <i name="OMEGATL">   -200.00000000</i>
   <i type="int" name="OMEGAGRID">   140</i>
   <i name="CSHIFT">     -0.10000000</i>
   <i type="logical" name="SELFENERGY"> F  </i>
   <i type="logical" name="LSPECTRAL"> F  </i>
   <i type="logical" name="LSPECTRALGW"> F  </i>
   <i type="logical" name="LSINGLES"> F  </i>
   <i type="logical" name="LFERMIGW"> F  </i>
   <i type="logical" name="ODDONLYGW"> F  </i>
   <i type="logical" name="EVENONLYGW"> F  </i>
   <i type="int" name="NKREDLFX">     1</i>
   <i type="int" name="NKREDLFY">     1</i>
   <i type="int" name="NKREDLFZ">     1</i>
   <i type="int" name="MAXMEM">  2800</i>
   <i type="int" name="TELESCOPE">     0</i>
   <i type="int" name="TAUPAR">     1</i>
   <i type="int" name="OMEGAPAR">    -1</i>
   <i name="LAMBDA">      1.00000000</i>
  </separator>
  <separator name="External order field" >
   <i name="OFIELD_KAPPA">      0.00000000</i>
   <v name="OFIELD_K">      0.00000000      0.00000000      0.00000000</v>
   <i name="OFIELD_Q6_NEAR">      0.00000000</i>
   <i name="OFIELD_Q6_FAR">      0.00000000</i>
   <i name="OFIELD_A">      0.00000000</i>
  </separator>
 </parameters>
 <atominfo>
  <atoms>       2 </atoms>
  <types>       1 </types>
  <array name="atoms" >
   <dimension dim="1">ion</dimension>
   <field type="string">element</field>
   <field type="int">atomtype</field>
   <set>
    <rc><c>Pt</c><c>   1</c></rc>
    <rc><c>Pt</c><c>   1</c></rc>
   </set>
  </array>
  <array name="atomtypes" >
   <dimension dim="1">type</dimension>
   <field type="int">atomspertype</field>
   <field type="string">element</field>
   <field>mass</field>
   <field>valence</field>
   <field type="string">pseudopotential</field>
   <set>
    <rc><c>   2</c><c>Pt</c><c>    195.08000000</c><c>     10.00000000</c><c>  PAW_PBE Pt 04Feb2005                  </c></rc>
   </set>
  </array>
 </atominfo>
 <structure name="initialpos" >
  <crystal>
   <varray name="basis" >
    <v>       2.77185858       0.00000000       0.00000000 </v>
    <v>       0.00000000       2.77185858       0.00000000 </v>
    <v>       0.00000000       0.00000000       3.92000000 </v>
   </varray>
   <i name="volume">     30.11814400 </i>
   <varray name="rec_basis" >
    <v>       0.36076877       0.00000000       0.00000000 </v>
    <v>       0.00000000       0.36076877       0.00000000 </v>
    <v>       0.00000000       0.00000000       0.25510204 </v>
   </varray>
  </crystal>
  <varray name="positions" >
   <v>       0.00000000       0.00000000       0.00000000 </v>
   <v>       0.50000000       0.50000000       0.50000000 </v>
  </varray>
 </structure>
 <calculation>
  <scstep>
   <time name="dav">    2.57    2.57</time>
   <time name="total">    2.58    2.63</time>
   <energy>
    <i name="alphaZ">    126.24717778 </i>
    <i name="ewald">  -1684.21018545 </i>
    <i name="hartreedc">   -142.80344766 </i>
    <i name="XCdc">      7.62325871 </i>
    <i name="pawpsdc">   1392.24707086 </i>
    <i name="pawaedc">  -1335.68058996 </i>
    <i name="eentropy">      0.00045684 </i>
    <i name="bandstr">    258.56464897 </i>
    <i name="atom">   1458.23286981 </i>
    <i name="e_fr_energy">     80.22125990 </i>
    <i name="e_wo_entrp">     80.22080306 </i>
    <i name="e_0_energy">     80.22110762 </i>
   </energy>
  </scstep>
  <scstep>
   <time name="dav">    2.88    2.90</time>
   <time name="total">    2.88    2.90</time>
   <energy>
    <i name="e_fr_energy">    -12.55287288 </i>
    <i name="e_wo_entrp">    -12.55133648 </i>
    <i name="e_0_energy">    -12.55236075 </i>
   </energy>
  </scstep>
  <scstep>
   <time name="dav">    4.76    4.77</time>
   <time name="total">    4.76    4.77</time>
   <energy>
    <i name="e_fr_energy">    -12.91758243 </i>
    <i name="e_wo_entrp">    -12.91604144 </i>
    <i name="e_0_energy">    -12.91706876 </i>
   </energy>
  </scstep>
  <scstep>
   <time name="dav">    3.84    3.84</time>
   <time name="total">    3.84    3.85</time>
   <energy>
    <i name="e_fr_energy">    -12.91799911 </i>
    <i name="e_wo_entrp">    -12.91645666 </i>
    <i name="e_0_energy">    -12.91748496 </i>
   </energy>
  </scstep>
  <scstep>
   <time name="dav">    6.65    6.66</time>
   <time name="total">    6.67    6.68</time>
   <energy>
    <i name="e_fr_energy">    -12.91799930 </i>
    <i name="e_wo_entrp">    -12.91645684 </i>
    <i name="e_0_energy">    -12.91748515 </i>
   </energy>
  </scstep>
  <scstep>
   <time name="diag">    0.30    0.30</time>
   <time name="diis">    0.58    0.58</time>
   <time name="orth">    0.03    0.03</time>
   <time name="total">    0.93    0.94</time>
   <energy>
    <i name="e_fr_energy">    -12.24644767 </i>
    <i name="e_wo_entrp">    -12.24427761 </i>
    <i name="e_0_energy">    -12.24572432 </i>
   </energy>
  </scstep>
  <scstep>
   <time name="diag">    0.30    0.30</time>
   <time name="diis">    0.61    0.61</time>
   <time name="orth">    0.03    0.03</time>
   <time name="total">    0.96    0.96</time>
   <energy>
    <i name="e_fr_energy">    -12.16935931 </i>
    <i name="e_wo_entrp">    -12.16716300 </i>
    <i name="e_0_energy">    -12.16862721 </i>
   </energy>
  </scstep>
  <scstep>
   <time name="diag">    0.30    0.30</time>
   <time name="diis">    0.62    0.62</time>
   <time name="orth">    0.03    0.03</time>
   <time name="total">    0.97    0.97</time>
   <energy>
    <i name="e_fr_energy">    -12.16138314 </i>
    <i name="e_wo_entrp">    -12.15918901 </i>
    <i name="e_0_energy">    -12.16065176 </i>
   </energy>
  </scstep>
  <scstep>
   <time name="diag">    0.30    0.30</time>
   <time name="diis">    0.67    0.67</time>
   <time name="orth">    0.03    0.03</time>
   <time name="total">    1.02    1.02</time>
   <energy>
    <i name="e_fr_energy">    -12.16081306 </i>
    <i name="e_wo_entrp">    -12.15861462 </i>
    <i name="e_0_energy">    -12.16008025 </i>
   </energy>
  </scstep>
  <scstep>
   <time name="diag">    0.30    0.30</time>
   <time name="diis">    0.65    0.65</time>
   <time name="orth">    0.03    0.03</time>
   <time name="total">    1.00    1.00</time>
   <energy>
    <i name="e_fr_energy">    -12.16081645 </i>
    <i name="e_wo_entrp">    -12.15861981 </i>
    <i name="e_0_energy">    -12.16008423 </i>
   </energy>
  </scstep>
  <scstep>
   <time name="diag">    0.30    0.30</time>
   <time name="diis">    0.58    0.58</time>
   <time name="orth">    0.03    0.03</time>
   <time name="total">    0.92    0.92</time>
   <energy>
    <i name="alphaZ">    126.24717778 </i>
    <i name="ewald">  -1684.21018545 </i>
    <i name="hartreedc">   -122.52821090 </i>
    <i name="XCdc">      6.89382289 </i>
    <i name="pawpsdc">   1877.24692909 </i>
    <i name="pawaedc">  -1827.07324630 </i>
    <i name="eentropy">     -0.00219609 </i>
    <i name="bandstr">    153.03222284 </i>
    <i name="atom">   1458.23286981 </i>
    <i name="e_fr_energy">    -12.16081633 </i>
    <i name="e_wo_entrp">    -12.15862024 </i>
    <i name="e_0_energy">    -12.16008430 </i>
   </energy>
  </scstep>
  <structure>
   <crystal>
    <varray name="basis" >
     <v>       2.77185858       0.00000000       0.00000000 </v>
     <v>       0.00000000       2.77185858       0.00000000 </v>
     <v>       0.00000000       0.00000000       3.92000000 </v>
    </varray>
    <i name="volume">     30.11814400 </i>
    <varray name="rec_basis" >
     <v>       0.36076877       0.00000000       0.00000000 </v>
     <v>       0.00000000       0.36076877       0.00000000 </v>
     <v>       0.00000000       0.00000000       0.25510204 </v>
    </varray>
   </crystal>
   <varray name="positions" >
    <v>       0.00000000       0.00000000       0.00000000 </v>
    <v>       0.50000000       0.50000000       0.50000000 </v>
   </varray>
  </structure>
  <varray name="forces" >
   <v>       0.00000000       0.00000000       0.00000000 </v>
   <v>      -0.00000000      -0.00000000      -0.00000000 </v>
  </varray>
  <varray name="stress" >
   <v>      99.50909056       0.00000000      -0.00000000 </v>
   <v>       0.00000000      99.50909056       0.00000000 </v>
   <v>       0.00000000       0.00000000      97.83463705 </v>
  </varray>
  <energy>
   <i name="e_fr_energy">    -12.16081633 </i>
   <i name="e_wo_entrp">    -12.16008430 </i>
   <i name="e_0_energy">     -0.00219609 </i>
  </energy>
  <time name="totalsc">   27.59   27.75</time>
 </calculation>
 <calculation>
  <scstep>
   <time name="dav">    2.58    2.59</time>
   <time name="total">    2.61    2.62</time>
   <energy>
    <i name="alphaZ">    122.90858491 </i>
    <i name="ewald">  -1669.23110681 </i>
    <i name="hartreedc">   -121.43738806 </i>
    <i name="XCdc">      6.46175841 </i>
    <i name="pawpsdc">   1877.41823689 </i>
    <i name="pawaedc">  -1827.24627542 </i>
    <i name="eentropy">     -0.00193165 </i>
    <i name="bandstr">    140.57785895 </i>
    <i name="atom">   1458.23286981 </i>
    <i name="e_fr_energy">    -12.31739296 </i>
    <i name="e_wo_entrp">    -12.31546131 </i>
    <i name="e_0_energy">    -12.31674908 </i>
   </energy>
  </scstep>
  <scstep>
   <time name="diag">    0.30    0.30</time>
   <time name="diis">    0.61    0.61</time>
   <time name="orth">    0.03    0.03</time>
   <time name="total">    0.95    0.95</time>
   <energy>
    <i name="e_fr_energy">    -12.19749895 </i>
    <i name="e_wo_entrp">    -12.19532532 </i>
    <i name="e_0_energy">    -12.19677441 </i>
   </energy>
  </scstep>
  <scstep>
   <time name="diag">    0.30    0.30</time>
   <time name="diis">    0.68    0.68</time>
   <time name="orth">    0.03    0.03</time>
   <time name="total">    1.02    1.03</time>
   <energy>
    <i name="e_fr_energy">    -12.19128561 </i>
    <i name="e_wo_entrp">    -12.18901696 </i>
    <i name="e_0_energy">    -12.19052939 </i>
   </energy>
  </scstep>
  <scstep>
   <time name="diag">    0.30    0.30</time>
   <time name="diis">    0.60    0.60</time>
   <time name="orth">    0.03    0.03</time>
   <time name="total">    0.95    0.95</time>
   <energy>
    <i name="e_fr_energy">    -12.19166423 </i>
    <i name="e_wo_entrp">    -12.18937748 </i>
    <i name="e_0_energy">    -12.19090198 </i>
   </energy>
  </scstep>
  <scstep>
   <time name="diag">    0.29    0.29</time>
   <time name="diis">    0.66    0.66</time>
   <time name="orth">    0.03    0.03</time>
   <time name="total">    1.00    1.01</time>
   <energy>
    <i name="e_fr_energy">    -12.19168784 </i>
    <i name="e_wo_entrp">    -12.18939841 </i>
    <i name="e_0_energy">    -12.19092469 </i>
   </energy>
  </scstep>
  <scstep>
   <time name="diag">    0.29    0.29</time>
   <time name="diis">    0.62    0.62</time>
   <time name="orth">    0.03    0.03</time>
   <time name="total">    0.96    0.97</time>
   <energy>
    <i name="e_fr_energy">    -12.19169191 </i>
    <i name="e_wo_entrp">    -12.18940213 </i>
    <i name="e_0_energy">    -12.19092865 </i>
   </energy>
  </scstep>
  <scstep>
   <time name="diag">    0.29    0.29</time>
   <time name="diis">    0.58    0.58</time>
   <time name="orth">    0.03    0.03</time>
   <time name="total">    0.90    0.90</time>
   <energy>
    <i name="alphaZ">    122.90858491 </i>
    <i name="ewald">  -1669.23110681 </i>
    <i name="hartreedc">   -127.14715721 </i>
    <i name="XCdc">      6.65384987 </i>
    <i name="pawpsdc">   1831.22168876 </i>
    <i name="pawaedc">  -1780.70115944 </i>
    <i name="eentropy">     -0.00228967 </i>
    <i name="bandstr">    145.87302756 </i>
    <i name="atom">   1458.23286981 </i>
    <i name="e_fr_energy">    -12.19169220 </i>
    <i name="e_wo_entrp">    -12.18940254 </i>
    <i name="e_0_energy">    -12.19092898 </i>
   </energy>
  </scstep>
  <structure>
   <crystal>
    <varray name="basis" >
     <v>       2.79687255       0.00000000      -0.00000000 </v>
     <v>       0.00000000       2.79687255       0.00000000 </v>
     <v>       0.00000000       0.00000000       3.95477984 </v>
    </varray>
    <i name="volume">     30.93624976 </i>
    <varray name="rec_basis" >
     <v>       0.35754221       0.00000000      -0.00000000 </v>
     <v>       0.00000000       0.35754221       0.00000000 </v>
     <v>       0.00000000       0.00000000       0.25285858 </v>
    </varray>
   </crystal>
   <varray name="positions" >
    <v>       0.00000000       0.00000000       0.00000000 </v>
    <v>       0.50000000       0.50000000       0.50000000 </v>
   </varray>
  </structure>
  <varray name="forces" >
   <v>      -0.00000000      -0.00000000       0.00000000 </v>
   <v>       0.00000000       0.00000000      -0.00000000 </v>
  </varray>
  <varray name="stress" >
   <v>      23.99600173       0.00000000       0.00000000 </v>
   <v>       0.00000000      23.99600173       0.00000000 </v>
   <v>       0.00000000      -0.00000000      24.17995103 </v>
  </varray>
  <energy>
   <i name="e_fr_energy">    -12.19169220 </i>
   <i name="e_wo_entrp">    -12.19092898 </i>
   <i name="e_0_energy">     -0.00228967 </i>
  </energy>
  <time name="totalsc">    9.43    9.46</time>
 </calculation>
 <calculation>
  <scstep>
   <time name="dav">    2.33    2.33</time>
   <time name="total">    2.35    2.36</time>
   <energy>
    <i name="alphaZ">    121.80908937 </i>
    <i name="ewald">  -1664.23874562 </i>
    <i name="hartreedc">   -126.76652219 </i>
    <i name="XCdc">      6.50861302 </i>
    <i name="pawpsdc">   1831.25060026 </i>
    <i name="pawaedc">  -1780.72987804 </i>
    <i name="eentropy">     -0.00217783 </i>
    <i name="bandstr">    141.72793811 </i>
    <i name="atom">   1458.23286981 </i>
    <i name="e_fr_energy">    -12.20821311 </i>
    <i name="e_wo_entrp">    -12.20603528 </i>
    <i name="e_0_energy">    -12.20748717 </i>
   </energy>
  </scstep>
  <scstep>
   <time name="diag">    0.30    0.30</time>
   <time name="diis">    0.61    0.61</time>
   <time name="orth">    0.03    0.03</time>
   <time name="total">    0.95    0.96</time>
   <energy>
    <i name="e_fr_energy">    -12.19445270 </i>
    <i name="e_wo_entrp">    -12.19217342 </i>
    <i name="e_0_energy">    -12.19369294 </i>
   </energy>
  </scstep>
  <scstep>
   <time name="diag">    0.30    0.30</time>
   <time name="diis">    0.68    0.68</time>
   <time name="orth">    0.03    0.03</time>
   <time name="total">    1.03    1.03</time>
   <energy>
    <i name="e_fr_energy">    -12.19376043 </i>
    <i name="e_wo_entrp">    -12.19145186 </i>
    <i name="e_0_energy">    -12.19299090 </i>
   </energy>
  </scstep>
  <scstep>
   <time name="diag">    0.29    0.29</time>
   <time name="diis">    0.68    0.68</time>
   <time name="orth">    0.03    0.03</time>
   <time name="total">    1.02    1.03</time>
   <energy>
    <i name="e_fr_energy">    -12.19379967 </i>
    <i name="e_wo_entrp">    -12.19148452 </i>
    <i name="e_0_energy">    -12.19302796 </i>
   </energy>
  </scstep>
  <scstep>
   <time name="diag">    0.29    0.29</time>
   <time name="diis">    0.63    0.63</time>
   <time name="orth">    0.03    0.03</time>
   <time name="total">    0.97    0.97</time>
   <energy>
    <i name="e_fr_energy">    -12.19380074 </i>
    <i name="e_wo_entrp">    -12.19148490 </i>
    <i name="e_0_energy">    -12.19302880 </i>
   </energy>
  </scstep>
  <scstep>
   <time name="diag">    0.29    0.29</time>
   <time name="diis">    0.51    0.51</time>
   <time name="orth">    0.03    0.03</time>
   <time name="total">    0.84    0.84</time>
   <energy>
    <i name="alphaZ">    121.80908937 </i>
    <i name="ewald">  -1664.23874562 </i>
    <i name="hartreedc">   -128.72161609 </i>
    <i name="XCdc">      6.57521251 </i>
    <i name="pawpsdc">   1816.62091394 </i>
    <i name="pawaedc">  -1765.98400591 </i>
    <i name="eentropy">     -0.00231590 </i>
    <i name="bandstr">    143.51479668 </i>
    <i name="atom">   1458.23286981 </i>
    <i name="e_fr_energy">    -12.19380122 </i>
    <i name="e_wo_entrp">    -12.19148531 </i>
    <i name="e_0_energy">    -12.19302925 </i>
   </energy>
  </scstep>
  <structure>
   <crystal>
    <varray name="basis" >
     <v>       2.80524119       0.00000000      -0.00000000 </v>
     <v>       0.00000000       2.80524119       0.00000000 </v>
     <v>       0.00000000      -0.00000000       3.96670381 </v>
    </varray>
    <i name="volume">     31.21549221 </i>
    <varray name="rec_basis" >
     <v>       0.35647559       0.00000000      -0.00000000 </v>
     <v>       0.00000000       0.35647559       0.00000000 </v>
     <v>       0.00000000       0.00000000       0.25209848 </v>
    </varray>
   </crystal>
   <varray name="positions" >
    <v>      -0.00000000      -0.00000000       0.00000000 </v>
    <v>       0.50000000       0.50000000       0.50000000 </v>
   </varray>
  </structure>
  <varray name="forces" >
   <v>      -0.00000000      -0.00000000       0.00000000 </v>
   <v>       0.00000000       0.00000000      -0.00000000 </v>
  </varray>
  <varray name="stress" >
   <v>       0.31106112       0.00000000       0.00000000 </v>
   <v>       0.00000000       0.31106112       0.00000000 </v>
   <v>       0.00000000       0.00000000       1.21798128 </v>
  </varray>
  <energy>
   <i name="e_fr_energy">    -12.19380122 </i>
   <i name="e_wo_entrp">    -12.19302925 </i>
   <i name="e_0_energy">     -0.00231590 </i>
  </energy>
  <time name="totalsc">    8.16    8.20</time>
 </calculation>
 <calculation>
  <scstep>
   <time name="dav">    5.12    5.13</time>
   <time name="total">    5.14    5.21</time>
   <energy>
    <i name="alphaZ">    121.77824855 </i>
    <i name="ewald">  -1664.09827804 </i>
    <i name="hartreedc">   -128.70866854 </i>
    <i name="XCdc">      6.57104612 </i>
    <i name="pawpsdc">   1816.72003778 </i>
    <i name="pawaedc">  -1766.08499049 </i>
    <i name="eentropy">     -0.00231373 </i>
    <i name="bandstr">    143.39823303 </i>
    <i name="atom">   1458.23286981 </i>
    <i name="e_fr_energy">    -12.19381552 </i>
    <i name="e_wo_entrp">    -12.19150179 </i>
    <i name="e_0_energy">    -12.19304427 </i>
   </energy>
  </scstep>
  <scstep>
   <time name="diag">    0.29    0.29</time>
   <time name="diis">    0.60    0.60</time>
   <time name="orth">    0.03    0.03</time>
   <time name="total">    0.95    0.95</time>
   <energy>
    <i name="e_fr_energy">    -12.19380428 </i>
    <i name="e_wo_entrp">    -12.19148855 </i>
    <i name="e_0_energy">    -12.19303237 </i>
   </energy>
  </scstep>
  <scstep>
   <time name="diag">    0.29    0.29</time>
   <time name="diis">    0.43    0.43</time>
   <time name="orth">    0.03    0.03</time>
   <time name="total">    0.75    0.76</time>
   <energy>
    <i name="alphaZ">    121.77824855 </i>
    <i name="ewald">  -1664.09827804 </i>
    <i name="hartreedc">   -128.76628886 </i>
    <i name="XCdc">      6.57301940 </i>
    <i name="pawpsdc">   1816.43713521 </i>
    <i name="pawaedc">  -1765.79766377 </i>
    <i name="eentropy">     -0.00231651 </i>
    <i name="bandstr">    143.44947078 </i>
    <i name="atom">   1458.23286981 </i>
    <i name="e_fr_energy">    -12.19380343 </i>
    <i name="e_wo_entrp">    -12.19148692 </i>
    <i name="e_0_energy">    -12.19303126 </i>
   </energy>
  </scstep>
  <structure>
   <crystal>
    <varray name="basis" >
     <v>       2.80539548       0.00000000       0.00000000 </v>
     <v>       0.00000000       2.80539548       0.00000000 </v>
     <v>       0.00000000      -0.00000000       3.96727198 </v>
    </varray>
    <i name="volume">     31.22339765 </i>
    <varray name="rec_basis" >
     <v>       0.35645598       0.00000000      -0.00000000 </v>
     <v>      -0.00000000       0.35645598       0.00000000 </v>
     <v>      -0.00000000       0.00000000       0.25206238 </v>
    </varray>
   </crystal>
   <varray name="positions" >
    <v>      -0.00000000      -0.00000000       0.00000000 </v>
    <v>       0.50000000       0.50000000       0.50000000 </v>
   </varray>
  </structure>
  <varray name="forces" >
   <v>      -0.00000000       0.00000000       0.00000000 </v>
   <v>       0.00000000      -0.00000000      -0.00000000 </v>
  </varray>
  <varray name="stress" >
   <v>      -0.38525799       0.00000000       0.00000000 </v>
   <v>       0.00000000      -0.38525799       0.00000000 </v>
   <v>      -0.00000000       0.00000000       0.58101580 </v>
  </varray>
  <energy>
   <i name="e_fr_energy">    -12.19380343 </i>
   <i name="e_wo_entrp">    -12.19303126 </i>
   <i name="e_0_energy">     -0.00231651 </i>
  </energy>
  <time name="totalsc">    7.98    8.39</time>
  <eigenvalues>
   <array>
    <dimension dim="1">band</dimension>
    <dimension dim="2">kpoint</dimension>
    <dimension dim="3">spin</dimension>
    <field>eigene</field>
    <field>occ</field>
    <set>
     <set comment="spin 1">
      <set comment="kpoint 1">
       <r>    0.7790    1.0000 </r>
       <r>    3.9124    1.0000 </r>
       <r>    4.3430    1.0000 </r>
       <r>    7.0268    1.0000 </r>
       <r>    7.0268    1.0000 </r>
       <r>    7.0268    1.0000 </r>
       <r>    9.0707    1.0000 </r>
       <r>    9.0713    1.0000 </r>
       <r>   10.6145    0.4432 </r>
       <r>   11.0634   -0.0000 </r>
       <r>   11.0634   -0.0000 </r>
       <r>   12.4606   -0.0000 </r>
       <r>   19.1250    0.0000 </r>
       <r>   21.8972    0.0000 </r>
       <r>   21.8972    0.0000 </r>
       <r>   25.3417    0.0000 </r>
      </set>
      <set comment="kpoint 2">
       <r>    0.8595    1.0000 </r>
       <r>    3.9701    1.0000 </r>
       <r>    4.3934    1.0000 </r>
       <r>    6.9871    1.0000 </r>
       <r>    7.0551    1.0000 </r>
       <r>    7.0668    1.0000 </r>
       <r>    9.0334    1.0000 </r>
       <r>    9.0726    1.0000 </r>
       <r>   10.5293    0.9863 </r>
       <r>   10.5478    0.9203 </r>
       <r>   11.0311   -0.0000 </r>
       <r>   13.0539   -0.0000 </r>
       <r>   18.9477    0.0000 </r>
       <r>   21.7439    0.0000 </r>
       <r>   22.0781    0.0000 </r>
       <r>   25.4650    0.0000 </r>
      </set>
      <set comment="kpoint 3">
       <r>    1.0970    1.0000 </r>
       <r>    4.1239    1.0000 </r>
       <r>    4.5544    1.0000 </r>
       <r>    6.8758    1.0000 </r>
       <r>    7.1394    1.0000 </r>
       <r>    7.1762    1.0000 </r>
       <r>    8.9269    1.0000 </r>
       <r>    9.0877    1.0000 </r>
       <r>    9.7297    1.0000 </r>
       <r>   10.2933    1.0000 </r>
       <r>   10.9351   -0.0000 </r>
       <r>   14.1046    0.0000 </r>
       <r>   18.4286    0.0000 </r>
       <r>   21.3885    0.0000 </r>
       <r>   22.5998    0.0000 </r>
       <r>   25.8158    0.0000 </r>
      </set>
      <set comment="kpoint 4">
       <r>    1.4797    1.0000 </r>
       <r>    4.3302    1.0000 </r>
       <r>    4.8407    1.0000 </r>
       <r>    6.7140    1.0000 </r>
       <r>    7.2778    1.0000 </r>
       <r>    7.3191    1.0000 </r>
       <r>    8.7708    1.0000 </r>
       <r>    8.9422    1.0000 </r>
       <r>    9.1496    1.0000 </r>
       <r>    9.9552    1.0000 </r>
       <r>   10.7784   -0.0183 </r>
       <r>   15.2787    0.0000 </r>
       <r>   17.6386    0.0000 </r>
       <r>   20.9859    0.0000 </r>
       <r>   23.4109    0.0000 </r>
       <r>   26.3331    0.0000 </r>
      </set>
      <set comment="kpoint 5">
       <r>    1.9880    1.0000 </r>
       <r>    4.5619    1.0000 </r>
       <r>    5.2271    1.0000 </r>
       <r>    6.5306    1.0000 </r>
       <r>    7.4286    1.0000 </r>
       <r>    7.4671    1.0000 </r>
       <r>    8.2349    1.0000 </r>
       <r>    8.5912    1.0000 </r>
       <r>    9.3206    1.0000 </r>
       <r>    9.5703    1.0000 </r>
       <r>   10.5663    0.8200 </r>
       <r>   16.5241    0.0000 </r>
       <r>   16.7052    0.0000 </r>
       <r>   20.6022    0.0000 </r>
       <r>   24.4511    0.0000 </r>
       <r>   26.6615    0.0000 </r>
      </set>
      <set comment="kpoint 6">
       <r>    2.5940    1.0000 </r>
       <r>    4.8117    1.0000 </r>
       <r>    5.6418    1.0000 </r>
       <r>    6.3559    1.0000 </r>
       <r>    7.4360    1.0000 </r>
       <r>    7.6234    1.0000 </r>
       <r>    7.7029    1.0000 </r>
       <r>    8.4161    1.0000 </r>
       <r>    9.1860    1.0000 </r>
       <r>    9.6635    1.0000 </r>
       <r>   10.3057    1.0001 </r>
       <r>   15.7474    0.0000 </r>
       <r>   17.8220    0.0000 </r>
       <r>   20.2708    0.0000 </r>
       <r>   25.6055    0.0000 </r>
       <r>   25.6658    0.0000 </r>
      </set>
      <set comment="kpoint 7">
       <r>    3.2607    1.0000 </r>
       <r>    5.0626    1.0000 </r>
       <r>    5.9981    1.0000 </r>
       <r>    6.2177    1.0000 </r>
       <r>    7.1149    1.0000 </r>
       <r>    7.3243    1.0000 </r>
       <r>    7.9792    1.0000 </r>
       <r>    8.2710    1.0000 </r>
       <r>    8.8376    1.0000 </r>
       <r>   10.0055    1.0000 </r>
       <r>   10.1872    1.0000 </r>
       <r>   14.8373    0.0000 </r>
       <r>   19.1598    0.0000 </r>
       <r>   20.0573    0.0000 </r>
       <r>   24.5048    0.0000 </r>
       <r>   26.7818    0.0000 </r>
      </set>
      <set comment="kpoint 8">
       <r>    3.9402    1.0000 </r>
       <r>    5.2641    1.0000 </r>
       <r>    6.1391    1.0000 </r>
       <r>    6.2391    1.0000 </r>
       <r>    6.7129    1.0000 </r>
       <r>    7.1225    1.0000 </r>
       <r>    8.1772    1.0000 </r>
       <r>    8.2889    1.0000 </r>
       <r>    8.5490    1.0000 </r>
       <r>    9.6759    1.0000 </r>
       <r>   10.8515   -0.0015 </r>
       <r>   13.9936    0.0000 </r>
       <r>   20.0691    0.0000 </r>
       <r>   20.5257    0.0000 </r>
       <r>   23.3292    0.0000 </r>
       <r>   25.8273    0.0000 </r>
      </set>
      <set comment="kpoint 9">
       <r>    4.5683    1.0000 </r>
       <r>    5.3008    1.0000 </r>
       <r>    6.1382    1.0000 </r>
       <r>    6.4087    1.0000 </r>
       <r>    6.4180    1.0000 </r>
       <r>    6.8714    1.0000 </r>
       <r>    8.1506    1.0000 </r>
       <r>    8.3345    1.0000 </r>
       <r>    8.6236    1.0000 </r>
       <r>    9.3281    1.0000 </r>
       <r>   11.6035   -0.0000 </r>
       <r>   13.1903   -0.0000 </r>
       <r>   20.4144    0.0000 </r>
       <r>   21.9053    0.0000 </r>
       <r>   22.1523    0.0000 </r>
       <r>   24.6084    0.0000 </r>
      </set>
      <set comment="kpoint 10">
       <r>    5.0573    1.0000 </r>
       <r>    5.0573    1.0000 </r>
       <r>    6.2283    1.0000 </r>
       <r>    6.2283    1.0000 </r>
       <r>    6.6164    1.0000 </r>
       <r>    6.6164    1.0000 </r>
       <r>    8.2014    1.0000 </r>
       <r>    8.2014    1.0000 </r>
       <r>    8.9736    1.0000 </r>
       <r>    8.9736    1.0000 </r>
       <r>   12.3941   -0.0000 </r>
       <r>   12.3941   -0.0000 </r>
       <r>   21.1315    0.0000 </r>
       <r>   21.1315    0.0000 </r>
       <r>   23.2780    0.0000 </r>
       <r>   23.2780    0.0000 </r>
      </set>
      <set comment="kpoint 11">
       <r>    0.9397    1.0000 </r>
       <r>    4.0295    1.0000 </r>
       <r>    4.4418    1.0000 </r>
       <r>    6.9233    1.0000 </r>
       <r>    7.1082    1.0000 </r>
       <r>    7.1083    1.0000 </r>
       <r>    8.9569    1.0000 </r>
       <r>    9.1124    1.0000 </r>
       <r>   10.1673    1.0000 </r>
       <r>   10.4430    1.0208 </r>
       <r>   11.0638   -0.0000 </r>
       <r>   13.4462    0.0000 </r>
       <r>   18.8178    0.0000 </r>
       <r>   21.7507    0.0000 </r>
       <r>   22.0401    0.0000 </r>
       <r>   25.5884    0.0000 </r>
      </set>
      <set comment="kpoint 12">
       <r>    1.1762    1.0000 </r>
       <r>    4.1878    1.0000 </r>
       <r>    4.5974    1.0000 </r>
       <r>    6.7968    1.0000 </r>
       <r>    7.2096    1.0000 </r>
       <r>    7.2221    1.0000 </r>
       <r>    8.8250    1.0000 </r>
       <r>    9.1510    1.0000 </r>
       <r>    9.4716    1.0000 </r>
       <r>   10.2053    1.0000 </r>
       <r>   11.0081   -0.0000 </r>
       <r>   14.3316    0.0000 </r>
       <r>   18.3996    0.0000 </r>
       <r>   21.4063    0.0000 </r>
       <r>   22.4200    0.0000 </r>
       <r>   25.9400    0.0000 </r>
      </set>
      <set comment="kpoint 13">
       <r>    1.5571    1.0000 </r>
       <r>    4.3983    1.0000 </r>
       <r>    4.8771    1.0000 </r>
       <r>    6.6300    1.0000 </r>
       <r>    7.3558    1.0000 </r>
       <r>    7.3703    1.0000 </r>
       <r>    8.6691    1.0000 </r>
       <r>    8.7493    1.0000 </r>
       <r>    9.2116    1.0000 </r>
       <r>    9.8678    1.0000 </r>
       <r>   10.8657   -0.0008 </r>
       <r>   15.4218    0.0000 </r>
       <r>   17.6957    0.0000 </r>
       <r>   20.9650    0.0000 </r>
       <r>   23.1377    0.0000 </r>
       <r>   26.4591    0.0000 </r>
      </set>
      <set comment="kpoint 14">
       <r>    2.0622    1.0000 </r>
       <r>    4.6324    1.0000 </r>
       <r>    5.2551    1.0000 </r>
       <r>    6.4453    1.0000 </r>
       <r>    7.4745    1.0000 </r>
       <r>    7.5495    1.0000 </r>
       <r>    8.0798    1.0000 </r>
       <r>    8.5241    1.0000 </r>
       <r>    9.3601    1.0000 </r>
       <r>    9.4905    1.0000 </r>
       <r>   10.6592    0.1224 </r>
       <r>   16.6176    0.0000 </r>
       <r>   16.8081    0.0000 </r>
       <r>   20.5600    0.0000 </r>
       <r>   24.0818    0.0000 </r>
       <r>   26.7780    0.0000 </r>
      </set>
      <set comment="kpoint 15">
       <r>    2.6631    1.0000 </r>
       <r>    4.8860    1.0000 </r>
       <r>    5.6522    1.0000 </r>
       <r>    6.2704    1.0000 </r>
       <r>    7.4489    1.0000 </r>
       <r>    7.4921    1.0000 </r>
       <r>    7.7882    1.0000 </r>
       <r>    8.4194    1.0000 </r>
       <r>    9.1281    1.0000 </r>
       <r>    9.6753    1.0000 </r>
       <r>   10.4009    1.0064 </r>
       <r>   15.8620    0.0000 </r>
       <r>   17.8814    0.0000 </r>
       <r>   20.2237    0.0000 </r>
       <r>   25.1673    0.0000 </r>
       <r>   25.7109    0.0000 </r>
      </set>
      <set comment="kpoint 16">
       <r>    3.3229    1.0000 </r>
       <r>    5.1460    1.0000 </r>
       <r>    5.9711    1.0000 </r>
       <r>    6.1321    1.0000 </r>
       <r>    6.9995    1.0000 </r>
       <r>    7.2894    1.0000 </r>
       <r>    8.0669    1.0000 </r>
       <r>    8.3511    1.0000 </r>
       <r>    8.8241    1.0000 </r>
       <r>   10.1014    1.0000 </r>
       <r>   10.1824    1.0000 </r>
       <r>   14.9395    0.0000 </r>
       <r>   19.1932    0.0000 </r>
       <r>   20.0154    0.0000 </r>
       <r>   24.5857    0.0000 </r>
       <r>   26.2832    0.0000 </r>
      </set>
[...]
       <r>    8.1741    1.0000 </r>
       <r>    8.2416    1.0000 </r>
       <r>   10.0787    1.0000 </r>
       <r>   10.2127    1.0000 </r>
       <r>   11.6869   -0.0000 </r>
       <r>   12.3346   -0.0000 </r>
       <r>   17.1673    0.0000 </r>
       <r>   17.9257    0.0000 </r>
       <r>   25.6140    0.0000 </r>
       <r>   25.6574    0.0000 </r>
      </set>
      <set comment="kpoint 356">
       <r>    3.9251    1.0000 </r>
       <r>    3.9878    1.0000 </r>
       <r>    6.7241    1.0000 </r>
       <r>    6.7855    1.0000 </r>
       <r>    7.2275    1.0000 </r>
       <r>    7.2521    1.0000 </r>
       <r>    8.6170    1.0000 </r>
       <r>    8.6685    1.0000 </r>
       <r>   10.4586    1.0280 </r>
       <r>   10.4723    1.0333 </r>
       <r>   11.9943   -0.0000 </r>
       <r>   12.4937   -0.0000 </r>
       <r>   16.2870    0.0000 </r>
       <r>   16.7978    0.0000 </r>
       <r>   25.4369    0.0000 </r>
       <r>   25.4444    0.0000 </r>
      </set>
      <set comment="kpoint 357">
       <r>    3.9309    1.0000 </r>
       <r>    3.9309    1.0000 </r>
       <r>    6.7454    1.0000 </r>
       <r>    6.7454    1.0000 </r>
       <r>    7.2178    1.0000 </r>
       <r>    7.2178    1.0000 </r>
       <r>    8.7886    1.0000 </r>
       <r>    8.7886    1.0000 </r>
       <r>   10.6067    0.5097 </r>
       <r>   10.6067    0.5097 </r>
       <r>   12.3557   -0.0000 </r>
       <r>   12.3557   -0.0000 </r>
       <r>   16.1421    0.0000 </r>
       <r>   16.1421    0.0000 </r>
       <r>   25.3688    0.0000 </r>
       <r>   25.3688    0.0000 </r>
      </set>
      <set comment="kpoint 358">
       <r>    4.1132    1.0000 </r>
       <r>    4.6284    1.0000 </r>
       <r>    5.8593    1.0000 </r>
       <r>    6.0195    1.0000 </r>
       <r>    6.7055    1.0000 </r>
       <r>    6.9893    1.0000 </r>
       <r>    8.3513    1.0000 </r>
       <r>    8.4574    1.0000 </r>
       <r>    8.6079    1.0000 </r>
       <r>    8.8571    1.0000 </r>
       <r>   10.9523   -0.0000 </r>
       <r>   11.4715   -0.0000 </r>
       <r>   22.4048    0.0000 </r>
       <r>   23.2038    0.0000 </r>
       <r>   24.7178    0.0000 </r>
       <r>   25.6300    0.0000 </r>
      </set>
      <set comment="kpoint 359">
       <r>    4.3325    1.0000 </r>
       <r>    4.7650    1.0000 </r>
       <r>    6.1271    1.0000 </r>
       <r>    6.1856    1.0000 </r>
       <r>    6.6259    1.0000 </r>
       <r>    6.9262    1.0000 </r>
       <r>    8.0615    1.0000 </r>
       <r>    8.2890    1.0000 </r>
       <r>    8.7264    1.0000 </r>
       <r>    9.0739    1.0000 </r>
       <r>   11.3165   -0.0000 </r>
       <r>   11.8660   -0.0000 </r>
       <r>   21.4242    0.0000 </r>
       <r>   22.2320    0.0000 </r>
       <r>   24.4830    0.0000 </r>
       <r>   25.3418    0.0000 </r>
      </set>
      <set comment="kpoint 360">
       <r>    4.4065    1.0000 </r>
       <r>    4.7048    1.0000 </r>
       <r>    6.5071    1.0000 </r>
       <r>    6.5307    1.0000 </r>
       <r>    6.7282    1.0000 </r>
       <r>    6.9005    1.0000 </r>
       <r>    7.8140    1.0000 </r>
       <r>    7.9776    1.0000 </r>
       <r>    9.0890    1.0000 </r>
       <r>    9.3726    1.0000 </r>
       <r>   11.6546   -0.0000 </r>
       <r>   12.2326   -0.0000 </r>
       <r>   20.0834    0.0000 </r>
       <r>   20.8974    0.0000 </r>
       <r>   24.6554    0.0000 </r>
       <r>   25.3946    0.0000 </r>
      </set>
      <set comment="kpoint 361">
       <r>    4.3690    1.0000 </r>
       <r>    4.5600    1.0000 </r>
       <r>    6.5299    1.0000 </r>
       <r>    6.6869    1.0000 </r>
       <r>    7.1685    1.0000 </r>
       <r>    7.2854    1.0000 </r>
       <r>    7.6580    1.0000 </r>
       <r>    7.7452    1.0000 </r>
       <r>    9.5275    1.0000 </r>
       <r>    9.7095    1.0000 </r>
       <r>   11.9825   -0.0000 </r>
       <r>   12.5933   -0.0000 </r>
       <r>   18.6725    0.0000 </r>
       <r>   19.4647    0.0000 </r>
       <r>   24.9571    0.0000 </r>
       <r>   25.5453    0.0000 </r>
      </set>
      <set comment="kpoint 362">
       <r>    4.3005    1.0000 </r>
       <r>    4.4144    1.0000 </r>
       <r>    6.5130    1.0000 </r>
       <r>    6.6200    1.0000 </r>
       <r>    7.5036    1.0000 </r>
       <r>    7.5997    1.0000 </r>
       <r>    7.6929    1.0000 </r>
       <r>    7.7846    1.0000 </r>
       <r>   10.0111    1.0000 </r>
       <r>   10.0785    1.0000 </r>
       <r>   12.3532   -0.0000 </r>
       <r>   12.9826   -0.0000 </r>
       <r>   17.3358    0.0000 </r>
       <r>   18.0654    0.0000 </r>
       <r>   25.2745    0.0000 </r>
       <r>   25.6847    0.0000 </r>
      </set>
      <set comment="kpoint 363">
       <r>    4.2529    1.0000 </r>
       <r>    4.3064    1.0000 </r>
       <r>    6.4978    1.0000 </r>
       <r>    6.5472    1.0000 </r>
       <r>    7.5034    1.0000 </r>
       <r>    7.5268    1.0000 </r>
       <r>    7.9907    1.0000 </r>
       <r>    8.0760    1.0000 </r>
       <r>   10.4040    1.0071 </r>
       <r>   10.4053    1.0074 </r>
       <r>   12.8448   -0.0000 </r>
       <r>   13.3600    0.0000 </r>
       <r>   16.2879    0.0000 </r>
       <r>   16.8327    0.0000 </r>
       <r>   25.5316    0.0000 </r>
       <r>   25.7407    0.0000 </r>
      </set>
      <set comment="kpoint 364">
       <r>    4.2516    1.0000 </r>
       <r>    4.2516    1.0000 </r>
       <r>    6.5048    1.0000 </r>
       <r>    6.5048    1.0000 </r>
       <r>    7.5013    1.0000 </r>
       <r>    7.5013    1.0000 </r>
       <r>    8.1366    1.0000 </r>
       <r>    8.1366    1.0000 </r>
       <r>   10.5455    0.9303 </r>
       <r>   10.5455    0.9303 </r>
       <r>   13.3487    0.0000 </r>
       <r>   13.3487    0.0000 </r>
       <r>   16.0596    0.0000 </r>
       <r>   16.0596    0.0000 </r>
       <r>   25.6872    0.0000 </r>
       <r>   25.6872    0.0000 </r>
      </set>
      <set comment="kpoint 365">
       <r>    4.6567    1.0000 </r>
       <r>    5.0427    1.0000 </r>
       <r>    6.1417    1.0000 </r>
       <r>    6.1433    1.0000 </r>
       <r>    6.5670    1.0000 </r>
       <r>    6.8286    1.0000 </r>
       <r>    8.1569    1.0000 </r>
       <r>    8.3071    1.0000 </r>
       <r>    8.6790    1.0000 </r>
       <r>    8.9865    1.0000 </r>
       <r>   11.7246   -0.0000 </r>
       <r>   12.2807   -0.0000 </r>
       <r>   21.2738    0.0000 </r>
       <r>   21.9809    0.0000 </r>
       <r>   23.4727    0.0000 </r>
       <r>   24.4075    0.0000 </r>
      </set>
      <set comment="kpoint 366">
       <r>    4.8208    1.0000 </r>
       <r>    5.0702    1.0000 </r>
       <r>    6.2984    1.0000 </r>
       <r>    6.3532    1.0000 </r>
       <r>    6.5976    1.0000 </r>
       <r>    6.7110    1.0000 </r>
       <r>    8.0868    1.0000 </r>
       <r>    8.1634    1.0000 </r>
       <r>    8.9862    1.0000 </r>
       <r>    9.2123    1.0000 </r>
       <r>   12.1062   -0.0000 </r>
       <r>   12.6667   -0.0000 </r>
       <r>   20.3917    0.0000 </r>
       <r>   21.0757    0.0000 </r>
       <r>   23.2595    0.0000 </r>
       <r>   24.1202    0.0000 </r>
      </set>
      <set comment="kpoint 367">
       <r>    4.8038    1.0000 </r>
       <r>    4.9424    1.0000 </r>
       <r>    6.3583    1.0000 </r>
       <r>    6.4567    1.0000 </r>
       <r>    6.7602    1.0000 </r>
       <r>    6.9573    1.0000 </r>
       <r>    8.0151    1.0000 </r>
       <r>    8.0332    1.0000 </r>
       <r>    9.4580    1.0000 </r>
       <r>    9.5823    1.0000 </r>
       <r>   12.4961   -0.0000 </r>
       <r>   13.0699   -0.0000 </r>
       <r>   19.0602    0.0000 </r>
       <r>   19.7455    0.0000 </r>
       <r>   23.5941    0.0000 </r>
       <r>   24.3207    0.0000 </r>
      </set>
      <set comment="kpoint 368">
       <r>    4.7246    1.0000 </r>
       <r>    4.7997    1.0000 </r>
       <r>    6.2874    1.0000 </r>
       <r>    6.3568    1.0000 </r>
       <r>    7.1048    1.0000 </r>
       <r>    7.3234    1.0000 </r>
       <r>    7.9513    1.0000 </r>
       <r>    7.9673    1.0000 </r>
       <r>    9.9632    1.0000 </r>
       <r>    9.9988    1.0000 </r>
       <r>   12.9754   -0.0000 </r>
       <r>   13.5674    0.0000 </r>
       <r>   17.6581    0.0000 </r>
       <r>   18.3202    0.0000 </r>
       <r>   24.1406    0.0000 </r>
       <r>   24.7436    0.0000 </r>
      </set>
      <set comment="kpoint 369">
       <r>    4.6620    1.0000 </r>
       <r>    4.6955    1.0000 </r>
       <r>    6.2326    1.0000 </r>
       <r>    6.2640    1.0000 </r>
       <r>    7.4017    1.0000 </r>
       <r>    7.5450    1.0000 </r>
       <r>    7.8987    1.0000 </r>
       <r>    7.9263    1.0000 </r>
       <r>   10.3373    1.0004 </r>
       <r>   10.3432    1.0006 </r>
       <r>   13.6429    0.0000 </r>
       <r>   14.1909    0.0000 </r>
       <r>   16.3996    0.0000 </r>
       <r>   16.9742    0.0000 </r>
       <r>   24.7975    0.0000 </r>
       <r>   25.3078    0.0000 </r>
      </set>
      <set comment="kpoint 370">
       <r>    4.6487    1.0000 </r>
       <r>    4.6487    1.0000 </r>
       <r>    6.2212    1.0000 </r>
       <r>    6.2212    1.0000 </r>
       <r>    7.5708    1.0000 </r>
       <r>    7.5708    1.0000 </r>
       <r>    7.8896    1.0000 </r>
       <r>    7.8896    1.0000 </r>
       <r>   10.4732    1.0335 </r>
       <r>   10.4732    1.0335 </r>
       <r>   14.3699    0.0000 </r>
       <r>   14.3699    0.0000 </r>
       <r>   16.0003    0.0000 </r>
       <r>   16.0003    0.0000 </r>
       <r>   25.5147    0.0000 </r>
       <r>   25.5147    0.0000 </r>
      </set>
      <set comment="kpoint 371">
       <r>    5.1662    1.0000 </r>
       <r>    5.2853    1.0000 </r>
       <r>    6.1836    1.0000 </r>
       <r>    6.3793    1.0000 </r>
       <r>    6.4336    1.0000 </r>
       <r>    6.4898    1.0000 </r>
       <r>    8.3112    1.0000 </r>
       <r>    8.3301    1.0000 </r>
       <r>    9.0957    1.0000 </r>
       <r>    9.2759    1.0000 </r>
       <r>   12.5307   -0.0000 </r>
       <r>   13.0696   -0.0000 </r>
       <r>   20.5002    0.0000 </r>
       <r>   20.9964    0.0000 </r>
       <r>   22.1167    0.0000 </r>
       <r>   23.0565    0.0000 </r>
      </set>
      <set comment="kpoint 372">
       <r>    5.2637    1.0000 </r>
       <r>    5.2710    1.0000 </r>
       <r>    6.2325    1.0000 </r>
       <r>    6.2373    1.0000 </r>
       <r>    6.3820    1.0000 </r>
       <r>    6.6475    1.0000 </r>
       <r>    8.3614    1.0000 </r>
       <r>    8.4135    1.0000 </r>
       <r>    9.4771    1.0000 </r>
       <r>    9.5756    1.0000 </r>
       <r>   12.9749   -0.0000 </r>
       <r>   13.5031    0.0000 </r>
       <r>   19.5885    0.0000 </r>
       <r>   20.1018    0.0000 </r>
       <r>   22.0962    0.0000 </r>
       <r>   22.8761    0.0000 </r>
      </set>
      <set comment="kpoint 373">
       <r>    5.1747    1.0000 </r>
       <r>    5.1903    1.0000 </r>
       <r>    6.0794    1.0000 </r>
       <r>    6.0831    1.0000 </r>
       <r>    6.6744    1.0000 </r>
       <r>    6.9324    1.0000 </r>
       <r>    8.3431    1.0000 </r>
       <r>    8.3971    1.0000 </r>
       <r>    9.9511    1.0000 </r>
       <r>    9.9769    1.0000 </r>
       <r>   13.5366    0.0000 </r>
       <r>   14.0706    0.0000 </r>
       <r>   18.1745    0.0000 </r>
       <r>   18.7261    0.0000 </r>
       <r>   22.7099    0.0000 </r>
       <r>   23.3051    0.0000 </r>
      </set>
      <set comment="kpoint 374">
       <r>    5.0969    1.0000 </r>
       <r>    5.1075    1.0000 </r>
       <r>    5.9739    1.0000 </r>
       <r>    5.9745    1.0000 </r>
       <r>    6.9587    1.0000 </r>
       <r>    7.1123    1.0000 </r>
       <r>    8.3105    1.0000 </r>
       <r>    8.3489    1.0000 </r>
       <r>   10.3009    1.0001 </r>
       <r>   10.3056    1.0001 </r>
       <r>   14.3306    0.0000 </r>
       <r>   14.8704    0.0000 </r>
       <r>   16.7577    0.0000 </r>
       <r>   17.3083    0.0000 </r>
       <r>   23.4872    0.0000 </r>
       <r>   23.9308    0.0000 </r>
      </set>
      <set comment="kpoint 375">
       <r>    5.0721    1.0000 </r>
       <r>    5.0721    1.0000 </r>
       <r>    5.9370    1.0000 </r>
       <r>    5.9370    1.0000 </r>
       <r>    7.1226    1.0000 </r>
       <r>    7.1226    1.0000 </r>
       <r>    8.3093    1.0000 </r>
       <r>    8.3093    1.0000 </r>
       <r>   10.4267    1.0140 </r>
       <r>   10.4267    1.0140 </r>
       <r>   15.3549    0.0000 </r>
       <r>   15.3549    0.0000 </r>
       <r>   16.0571    0.0000 </r>
       <r>   16.0571    0.0000 </r>
       <r>   24.1929    0.0000 </r>
       <r>   24.1929    0.0000 </r>
      </set>
      <set comment="kpoint 376">
       <r>    5.4182    1.0000 </r>
       <r>    5.6306    1.0000 </r>
       <r>    6.0281    1.0000 </r>
       <r>    6.1421    1.0000 </r>
       <r>    6.1512    1.0000 </r>
       <r>    6.5248    1.0000 </r>
       <r>    8.5947    1.0000 </r>
       <r>    8.6919    1.0000 </r>
       <r>    9.6771    1.0000 </r>
       <r>    9.7484    1.0000 </r>
       <r>   13.4685    0.0000 </r>
       <r>   13.9609    0.0000 </r>
       <r>   20.0592    0.0000 </r>
       <r>   20.2658    0.0000 </r>
       <r>   20.7492    0.0000 </r>
       <r>   21.6814    0.0000 </r>
      </set>
      <set comment="kpoint 377">
       <r>    5.4161    1.0000 </r>
       <r>    5.6481    1.0000 </r>
       <r>    5.8330    1.0000 </r>
       <r>    5.9604    1.0000 </r>
       <r>    6.3313    1.0000 </r>
       <r>    6.6643    1.0000 </r>
       <r>    8.6594    1.0000 </r>
       <r>    8.7507    1.0000 </r>
       <r>   10.0515    1.0000 </r>
       <r>   10.0765    1.0000 </r>
       <r>   14.0778    0.0000 </r>
       <r>   14.5537    0.0000 </r>
       <r>   18.8700    0.0000 </r>
       <r>   19.2801    0.0000 </r>
       <r>   21.1829    0.0000 </r>
       <r>   21.7558    0.0000 </r>
      </set>
      <set comment="kpoint 378">
       <r>    5.3963    1.0000 </r>
       <r>    5.5141    1.0000 </r>
       <r>    5.7403    1.0000 </r>
       <r>    5.8096    1.0000 </r>
       <r>    6.6145    1.0000 </r>
       <r>    6.7968    1.0000 </r>
       <r>    8.6485    1.0000 </r>
       <r>    8.7057    1.0000 </r>
       <r>   10.3702    1.0020 </r>
       <r>   10.3703    1.0020 </r>
       <r>   14.9119    0.0000 </r>
       <r>   15.3783    0.0000 </r>
       <r>   17.4176    0.0000 </r>
       <r>   17.8741    0.0000 </r>
       <r>   22.0002    0.0000 </r>
       <r>   22.3540    0.0000 </r>
      </set>
      <set comment="kpoint 379">
       <r>    5.4228    1.0000 </r>
       <r>    5.4228    1.0000 </r>
       <r>    5.7336    1.0000 </r>
       <r>    5.7336    1.0000 </r>
       <r>    6.7882    1.0000 </r>
       <r>    6.7882    1.0000 </r>
       <r>    8.6563    1.0000 </r>
       <r>    8.6563    1.0000 </r>
       <r>   10.4849    1.0355 </r>
       <r>   10.4849    1.0355 </r>
       <r>   15.9443    0.0000 </r>
       <r>   15.9443    0.0000 </r>
       <r>   16.6271    0.0000 </r>
       <r>   16.6271    0.0000 </r>
       <r>   22.6009    0.0000 </r>
       <r>   22.6009    0.0000 </r>
      </set>
      <set comment="kpoint 380">
       <r>    5.4382    1.0000 </r>
       <r>    5.6116    1.0000 </r>
       <r>    5.9350    1.0000 </r>
       <r>    6.0714    1.0000 </r>
       <r>    6.0897    1.0000 </r>
       <r>    6.5874    1.0000 </r>
       <r>    8.7874    1.0000 </r>
       <r>    8.8831    1.0000 </r>
       <r>   10.3183    1.0002 </r>
       <r>   10.3307    1.0003 </r>
       <r>   14.6988    0.0000 </r>
       <r>   15.1343    0.0000 </r>
       <r>   19.5078    0.0000 </r>
       <r>   19.7224    0.0000 </r>
       <r>   19.8296    0.0000 </r>
       <r>   20.4359    0.0000 </r>
      </set>
      <set comment="kpoint 381">
       <r>    5.3942    1.0000 </r>
       <r>    5.4660    1.0000 </r>
       <r>    5.8902    1.0000 </r>
       <r>    5.9337    1.0000 </r>
       <r>    6.4047    1.0000 </r>
       <r>    6.6300    1.0000 </r>
       <r>    8.7938    1.0000 </r>
       <r>    8.8553    1.0000 </r>
       <r>   10.5943    0.6131 </r>
       <r>   10.5946    0.6108 </r>
       <r>   15.4999    0.0000 </r>
       <r>   15.8929    0.0000 </r>
       <r>   18.2083    0.0000 </r>
       <r>   18.5931    0.0000 </r>
       <r>   20.5300    0.0000 </r>
       <r>   20.7806    0.0000 </r>
      </set>
      <set comment="kpoint 382">
       <r>    5.3941    1.0000 </r>
       <r>    5.3941    1.0000 </r>
       <r>    5.8741    1.0000 </r>
       <r>    5.8741    1.0000 </r>
       <r>    6.5961    1.0000 </r>
       <r>    6.5961    1.0000 </r>
       <r>    8.8037    1.0000 </r>
       <r>    8.8037    1.0000 </r>
       <r>   10.7025   -0.0187 </r>
       <r>   10.7025   -0.0187 </r>
       <r>   16.3281    0.0000 </r>
       <r>   16.3281    0.0000 </r>
       <r>   17.5438    0.0000 </r>
       <r>   17.5438    0.0000 </r>
       <r>   21.0304    0.0000 </r>
       <r>   21.0304    0.0000 </r>
      </set>
      <set comment="kpoint 383">
       <r>    5.3063    1.0000 </r>
       <r>    5.3335    1.0000 </r>
       <r>    5.9705    1.0000 </r>
       <r>    6.0378    1.0000 </r>
       <r>    6.4450    1.0000 </r>
       <r>    6.6048    1.0000 </r>
       <r>    8.7972    1.0000 </r>
       <r>    8.8379    1.0000 </r>
       <r>   10.8492   -0.0017 </r>
       <r>   10.8511   -0.0016 </r>
       <r>   16.2240    0.0000 </r>
       <r>   16.5563    0.0000 </r>
       <r>   18.5886    0.0000 </r>
       <r>   19.0982    0.0000 </r>
       <r>   19.5248    0.0000 </r>
       <r>   19.5633    0.0000 </r>
      </set>
      <set comment="kpoint 384">
       <r>    5.2789    1.0000 </r>
       <r>    5.2789    1.0000 </r>
       <r>    6.0007    1.0000 </r>
       <r>    6.0007    1.0000 </r>
       <r>    6.5751    1.0000 </r>
       <r>    6.5751    1.0000 </r>
       <r>    8.7945    1.0000 </r>
       <r>    8.7945    1.0000 </r>
       <r>   10.9575   -0.0000 </r>
       <r>   10.9575   -0.0000 </r>
       <r>   16.9290    0.0000 </r>
       <r>   16.9290    0.0000 </r>
       <r>   18.2634    0.0000 </r>
       <r>   18.2634    0.0000 </r>
       <r>   19.6778    0.0000 </r>
       <r>   19.6778    0.0000 </r>
      </set>
      <set comment="kpoint 385">
       <r>    5.2364    1.0000 </r>
       <r>    5.2364    1.0000 </r>
       <r>    6.0181    1.0000 </r>
       <r>    6.0181    1.0000 </r>
       <r>    6.6072    1.0000 </r>
       <r>    6.6072    1.0000 </r>
       <r>    8.7694    1.0000 </r>
       <r>    8.7694    1.0000 </r>
       <r>   11.0661   -0.0000 </r>
       <r>   11.0661   -0.0000 </r>
       <r>   17.5090    0.0000 </r>
       <r>   17.5090    0.0000 </r>
       <r>   18.2372    0.0000 </r>
       <r>   18.2372    0.0000 </r>
       <r>   19.1810    0.0000 </r>
       <r>   19.1810    0.0000 </r>
      </set>
     </set>
    </set>
   </array>
  </eigenvalues>
  <separator name="orbital magnetization" >
   <v name="MAGDIPOLOUT">      0.00000000      0.00000000      0.00000000</v>
  </separator>
 </calculation>
 <structure name="finalpos" >
  <crystal>
   <varray name="basis" >
    <v>       2.80539548       0.00000000       0.00000000 </v>
    <v>       0.00000000       2.80539548       0.00000000 </v>
    <v>       0.00000000      -0.00000000       3.96727198 </v>
   </varray>
   <i name="volume">     31.22339765 </i>
   <varray name="rec_basis" >
    <v>       0.35645598       0.00000000      -0.00000000 </v>
    <v>      -0.00000000       0.35645598       0.00000000 </v>
    <v>      -0.00000000       0.00000000       0.25206238 </v>
   </varray>
  </crystal>
  <varray name="positions" >
   <v>      -0.00000000      -0.00000000       0.00000000 </v>
   <v>       0.50000000       0.50000000       0.50000000 </v>
  </varray>
 </structure>
</modeling>
