       N       E                     dE             d eps       ncg     rms          rms(c)
DAV:   1     0.431926966204E+04    0.43193E+04   -0.26914E+05   784   0.127E+03
DAV:   2    -0.663517428320E+02   -0.43856E+04   -0.40392E+04   936   0.280E+02
DAV:   3    -0.388872338475E+03   -0.32252E+03   -0.29276E+03   936   0.703E+01
DAV:   4    -0.405169003469E+03   -0.16297E+02   -0.14799E+02  1016   0.141E+01
DAV:   5    -0.405662056109E+03   -0.49305E+00   -0.48883E+00   968   0.252E+00    0.939E+01
RMM:   6    -0.411977862947E+03   -0.63158E+01   -0.80807E+01   787   0.140E+01    0.816E+01
RMM:   7    -0.470912524996E+03   -0.58935E+02   -0.18663E+02   787   0.141E+01    0.766E+01
RMM:   8    -0.666606345175E+03   -0.19569E+03   -0.25664E+02   802   0.150E+01    0.107E+02
RMM:   9    -0.432583109297E+03    0.23402E+03   -0.11954E+02   784   0.116E+01    0.506E+01
RMM:  10    -0.409046025512E+03    0.23537E+02   -0.42176E+01   785   0.788E+00    0.486E+01
RMM:  11    -0.389444490722E+03    0.19602E+02   -0.27345E+01   787   0.621E+00    0.374E+01
RMM:  12    -0.381381085356E+03    0.80634E+01   -0.72270E+00   787   0.346E+00    0.227E+01
RMM:  13    -0.379349426183E+03    0.20317E+01   -0.28793E+00   788   0.210E+00    0.170E+01
RMM:  14    -0.377855612188E+03    0.14938E+01   -0.10010E+00   789   0.123E+00    0.108E+01
RMM:  15    -0.377492170089E+03    0.36344E+00   -0.30815E-01   790   0.676E-01    0.785E+00
RMM:  16    -0.377366660204E+03    0.12551E+00   -0.14431E-01   788   0.479E-01    0.660E+00
RMM:  17    -0.377225775430E+03    0.14088E+00   -0.24549E-01   788   0.628E-01    0.646E+00
RMM:  18    -0.377418288277E+03   -0.19251E+00   -0.28289E-01   790   0.676E-01    0.874E+00
RMM:  19    -0.377129009150E+03    0.28928E+00   -0.24242E-01   788   0.651E-01    0.461E+00
RMM:  20    -0.377064505046E+03    0.64504E-01   -0.10033E-01   789   0.404E-01    0.315E+00
RMM:  21    -0.377023464267E+03    0.41041E-01   -0.39912E-02   788   0.258E-01    0.189E+00
RMM:  22    -0.377013705699E+03    0.97586E-02   -0.21046E-02   789   0.188E-01    0.133E+00
RMM:  23    -0.377006769226E+03    0.69365E-02   -0.73869E-03   788   0.110E-01    0.101E+00
RMM:  24    -0.377005261858E+03    0.15074E-02   -0.67187E-03   788   0.103E-01    0.853E-01
RMM:  25    -0.377002733314E+03    0.25285E-02   -0.32029E-03   790   0.713E-02    0.465E-01
RMM:  26    -0.377003073590E+03   -0.34028E-03   -0.16461E-03   788   0.511E-02    0.506E-01
RMM:  27    -0.377002634619E+03    0.43897E-03   -0.74254E-04   788   0.348E-02    0.364E-01
RMM:  28    -0.377002367955E+03    0.26666E-03   -0.45772E-04   788   0.277E-02    0.252E-01
RMM:  29    -0.377002208847E+03    0.15911E-03   -0.41140E-04   790   0.255E-02    0.155E-01
RMM:  30    -0.377002367458E+03   -0.15861E-03   -0.16448E-04   788   0.161E-02    0.116E-01
RMM:  31    -0.377002613695E+03   -0.24624E-03   -0.11590E-04   788   0.132E-02    0.904E-02
RMM:  32    -0.377002891005E+03   -0.27731E-03   -0.82260E-05   789   0.109E-02    0.436E-02
RMM:  33    -0.377003197534E+03   -0.30653E-03   -0.54423E-05   788   0.847E-03    0.580E-02
RMM:  34    -0.377003377109E+03   -0.17958E-03   -0.20550E-05   778   0.497E-03    0.436E-02
RMM:  35    -0.377003504335E+03   -0.12723E-03   -0.11958E-05   761   0.393E-03    0.304E-02
RMM:  36    -0.377003680788E+03   -0.17645E-03   -0.11686E-05   705   0.362E-03    0.219E-02
RMM:  37    -0.377003875316E+03   -0.19453E-03   -0.12805E-05   690   0.359E-03    0.219E-02
RMM:  38    -0.377004024286E+03   -0.14897E-03   -0.95088E-06   637   0.296E-03    0.238E-02
RMM:  39    -0.377004196901E+03   -0.17262E-03   -0.12797E-05   660   0.309E-03    0.174E-02
RMM:  40    -0.377004271031E+03   -0.74130E-04   -0.65383E-06   590   0.220E-03    0.120E-02
RMM:  41    -0.377004332045E+03   -0.61013E-04   -0.35151E-06   526   0.162E-03    0.164E-02
RMM:  42    -0.377004353451E+03   -0.21406E-04   -0.97369E-07   450   0.103E-03    0.474E-03
RMM:  43    -0.377004370327E+03   -0.16876E-04   -0.44003E-07   398   0.705E-04    0.659E-03
RMM:  44    -0.377004392507E+03   -0.22181E-04   -0.50316E-07   347   0.630E-04    0.278E-03
RMM:  45    -0.377004407311E+03   -0.14803E-04   -0.32012E-07   285   0.518E-04    0.316E-03
RMM:  46    -0.377004428388E+03   -0.21077E-04   -0.16689E-06   465   0.115E-03    0.300E-02
RMM:  47    -0.377004443911E+03   -0.15523E-04   -0.15111E-06   461   0.110E-03    0.479E-02
RMM:  48    -0.377004463463E+03   -0.19552E-04   -0.13002E-06   448   0.103E-03    0.687E-02
RMM:  49    -0.377004462489E+03    0.97413E-06   -0.25670E-07   289   0.539E-04
   1 F= -.41300218E+03 E0= -.41250176E+03  d E =-.100083E+01
       N       E                     dE             d eps       ncg     rms          rms(c)
DAV:   1    -0.377001392377E+03    0.30711E-02   -0.12337E+00   800   0.187E+00    0.270E-01
RMM:   2    -0.377017126291E+03   -0.15734E-01   -0.20513E-02   790   0.199E-01    0.158E+00
RMM:   3    -0.377003515115E+03    0.13611E-01   -0.23808E-03   791   0.559E-02    0.408E-01
RMM:   4    -0.377002715520E+03    0.79959E-03   -0.12912E-03   788   0.444E-02    0.239E-01
RMM:   5    -0.377003128974E+03   -0.41345E-03   -0.60731E-04   790   0.305E-02    0.369E-01
RMM:   6    -0.377002747201E+03    0.38177E-03   -0.38689E-04   788   0.253E-02    0.195E-01
RMM:   7    -0.377002662686E+03    0.84515E-04   -0.19682E-04   789   0.178E-02    0.132E-01
RMM:   8    -0.377002633632E+03    0.29054E-04   -0.10694E-04   788   0.131E-02    0.848E-02
RMM:   9    -0.377002615803E+03    0.17829E-04   -0.45336E-05   788   0.880E-03    0.575E-02
RMM:  10    -0.377002598648E+03    0.17155E-04   -0.15266E-05   783   0.518E-03    0.193E-02
RMM:  11    -0.377002598295E+03    0.35299E-06   -0.31975E-06   507   0.243E-03
   2 F= -.41300093E+03 E0= -.41250078E+03  d E =-.100030E+01
       N       E                     dE             d eps       ncg     rms          rms(c)
DAV:   1    -0.377001469531E+03    0.11291E-02   -0.49333E+00   800   0.374E+00    0.529E-01
RMM:   2    -0.377009234609E+03   -0.77651E-02   -0.74623E-02   790   0.384E-01    0.612E-01
RMM:   3    -0.377020494984E+03   -0.11260E-01   -0.72607E-03   792   0.101E-01    0.154E+00
RMM:   4    -0.377008015426E+03    0.12480E-01   -0.28463E-03   791   0.600E-02    0.725E-01
RMM:   5    -0.377007635272E+03    0.38015E-03   -0.24410E-03   788   0.611E-02    0.628E-01
RMM:   6    -0.377007299218E+03    0.33605E-03   -0.16764E-03   788   0.520E-02    0.492E-01
RMM:   7    -0.377006470225E+03    0.82899E-03   -0.89156E-04   788   0.382E-02    0.257E-01
RMM:   8    -0.377006435524E+03    0.34701E-04   -0.44093E-04   790   0.269E-02    0.208E-01
RMM:   9    -0.377006280847E+03    0.15468E-03   -0.21624E-04   788   0.189E-02    0.110E-01
RMM:  10    -0.377006203697E+03    0.77150E-04   -0.74608E-05   788   0.115E-02    0.373E-02
RMM:  11    -0.377006199924E+03    0.37729E-05   -0.12301E-05   783   0.454E-03    0.306E-02
RMM:  12    -0.377006201372E+03   -0.14488E-05   -0.61510E-06   695   0.316E-03    0.349E-02
RMM:  13    -0.377006198592E+03    0.27803E-05   -0.35092E-06   519   0.255E-03    0.208E-02
RMM:  14    -0.377006196616E+03    0.19758E-05   -0.15461E-06   426   0.181E-03    0.786E-03
RMM:  15    -0.377006196845E+03   -0.22841E-06   -0.52460E-07   407   0.103E-03
   3 F= -.41300327E+03 E0= -.41250273E+03  d E =-.100109E+01
       N       E                     dE             d eps       ncg     rms          rms(c)
DAV:   1    -0.377001197055E+03    0.49996E-02   -0.22829E+00   792   0.256E+00    0.465E-01
RMM:   2    -0.377008131684E+03   -0.69346E-02   -0.47876E-02   790   0.284E-01    0.786E-01
RMM:   3    -0.377006930797E+03    0.12009E-02   -0.54564E-03   791   0.920E-02    0.881E-01
RMM:   4    -0.377005516813E+03    0.14140E-02   -0.17499E-03   794   0.470E-02    0.793E-01
RMM:   5    -0.377003633903E+03    0.18829E-02   -0.16390E-03   789   0.493E-02    0.550E-01
RMM:   6    -0.377004018847E+03   -0.38494E-03   -0.13793E-03   789   0.465E-02    0.534E-01
RMM:   7    -0.377003019286E+03    0.99956E-03   -0.98859E-04   788   0.404E-02    0.263E-01
RMM:   8    -0.377002761184E+03    0.25810E-03   -0.39753E-04   788   0.256E-02    0.154E-01
RMM:   9    -0.377002696364E+03    0.64820E-04   -0.17024E-04   788   0.163E-02    0.104E-01
RMM:  10    -0.377002635987E+03    0.60376E-04   -0.50727E-05   788   0.951E-03    0.424E-02
RMM:  11    -0.377002629884E+03    0.61034E-05   -0.12765E-05   783   0.466E-03    0.304E-02
RMM:  12    -0.377002629326E+03    0.55844E-06   -0.51662E-06   642   0.294E-03
   4 F= -.41300139E+03 E0= -.41250121E+03  d E =-.100035E+01
       N       E                     dE             d eps       ncg     rms          rms(c)
DAV:   1    -0.377003228141E+03   -0.59826E-03   -0.46666E+00   800   0.366E+00    0.617E-01
RMM:   2    -0.377014415405E+03   -0.11187E-01   -0.89917E-02   789   0.399E-01    0.986E-01
RMM:   3    -0.377008976641E+03    0.54388E-02   -0.79220E-03   791   0.115E-01    0.792E-01
RMM:   4    -0.377012925000E+03   -0.39484E-02   -0.34010E-03   791   0.701E-02    0.113E+00
RMM:   5    -0.377013390321E+03   -0.46532E-03   -0.32331E-03   788   0.622E-02    0.119E+00
RMM:   6    -0.377009627462E+03    0.37629E-02   -0.31363E-03   788   0.669E-02    0.704E-01
RMM:   7    -0.377007070397E+03    0.25571E-02   -0.18201E-03   788   0.549E-02    0.291E-01
RMM:   8    -0.377006801822E+03    0.26857E-03   -0.68487E-04   789   0.335E-02    0.202E-01
RMM:   9    -0.377006678790E+03    0.12303E-03   -0.27628E-04   788   0.209E-02    0.134E-01
RMM:  10    -0.377006583392E+03    0.95397E-04   -0.87728E-05   788   0.124E-02    0.613E-02
RMM:  11    -0.377006569613E+03    0.13779E-04   -0.20821E-05   783   0.591E-03    0.411E-02
RMM:  12    -0.377006568604E+03    0.10092E-05   -0.97713E-06   776   0.401E-03    0.383E-02
RMM:  13    -0.377006567906E+03    0.69772E-06   -0.64470E-06   712   0.329E-03
   5 F= -.41300316E+03 E0= -.41250265E+03  d E =-.100103E+01
       N       E                     dE             d eps       ncg     rms          rms(c)
DAV:   1    -0.376993917702E+03    0.12651E-01   -0.23416E+00   784   0.260E+00    0.417E-01
RMM:   2    -0.377002342609E+03   -0.84249E-02   -0.39225E-02   789   0.263E-01    0.987E-01
RMM:   3    -0.376998648366E+03    0.36942E-02   -0.17489E-03   790   0.510E-02    0.693E-01
RMM:   4    -0.376998973775E+03   -0.32541E-03   -0.20136E-03   788   0.536E-02    0.740E-01
RMM:   5    -0.376999404105E+03   -0.43033E-03   -0.25052E-03   787   0.621E-02    0.760E-01
RMM:   6    -0.376997893146E+03    0.15110E-02   -0.13408E-03   790   0.458E-02    0.505E-01
RMM:   7    -0.376996839170E+03    0.10540E-02   -0.65022E-04   788   0.320E-02    0.283E-01
RMM:   8    -0.376996622019E+03    0.21715E-03   -0.36146E-04   788   0.241E-02    0.168E-01
RMM:   9    -0.376996604249E+03    0.17770E-04   -0.20120E-04   788   0.181E-02    0.119E-01
RMM:  10    -0.376996498797E+03    0.10545E-03   -0.69492E-05   788   0.105E-02    0.389E-02
RMM:  11    -0.376996491537E+03    0.72607E-05   -0.11108E-05   779   0.438E-03    0.173E-02
RMM:  12    -0.376996496942E+03   -0.54052E-05   -0.43851E-06   587   0.272E-03    0.287E-02
RMM:  13    -0.376996500420E+03   -0.34783E-05   -0.36477E-06   529   0.261E-03    0.272E-02
RMM:  14    -0.376996500402E+03    0.18037E-07   -0.22496E-06   455   0.217E-03
   6 F= -.41299377E+03 E0= -.41249284E+03  d E =-.100186E+01
       N       E                     dE             d eps       ncg     rms          rms(c)
DAV:   1    -0.377003134087E+03   -0.66337E-02   -0.48091E+00   784   0.371E+00    0.843E-01
RMM:   2    -0.377033648971E+03   -0.30515E-01   -0.10256E-01   790   0.423E-01    0.229E+00
RMM:   3    -0.377014549492E+03    0.19099E-01   -0.43409E-03   797   0.808E-02    0.130E+00
RMM:   4    -0.377022825673E+03   -0.82762E-02   -0.36466E-03   792   0.718E-02    0.175E+00
RMM:   5    -0.377029711800E+03   -0.68861E-02   -0.98155E-03   788   0.121E-01    0.213E+00
RMM:   6    -0.377018070545E+03    0.11641E-01   -0.77816E-03   788   0.109E-01    0.130E+00
RMM:   7    -0.377010865277E+03    0.72053E-02   -0.43682E-03   790   0.815E-02    0.671E-01
RMM:   8    -0.377009360537E+03    0.15047E-02   -0.19813E-03   788   0.560E-02    0.347E-01
RMM:   9    -0.377009285649E+03    0.74888E-04   -0.92146E-04   788   0.385E-02    0.268E-01
RMM:  10    -0.377008849450E+03    0.43620E-03   -0.28938E-04   788   0.218E-02    0.794E-02
RMM:  11    -0.377008819296E+03    0.30153E-04   -0.48386E-05   789   0.881E-03    0.537E-02
RMM:  12    -0.377008821431E+03   -0.21345E-05   -0.18183E-05   783   0.536E-03    0.553E-02
RMM:  13    -0.377008824835E+03   -0.34042E-05   -0.15458E-05   781   0.502E-03    0.491E-02
RMM:  14    -0.377008819247E+03    0.55882E-05   -0.12150E-05   779   0.450E-03    0.302E-02
RMM:  15    -0.377008817770E+03    0.14770E-05   -0.59684E-06   679   0.321E-03    0.174E-02
RMM:  16    -0.377008818880E+03   -0.11105E-05   -0.18144E-06   436   0.190E-03    0.117E-02
RMM:  17    -0.377008820420E+03   -0.15400E-05   -0.77541E-07   425   0.124E-03    0.655E-03
RMM:  18    -0.377008821745E+03   -0.13250E-05   -0.24374E-07   409   0.730E-04    0.269E-03
RMM:  19    -0.377008823511E+03   -0.17661E-05   -0.10291E-07   282   0.471E-04    0.277E-03
RMM:  20    -0.377008826463E+03   -0.29516E-05   -0.12042E-07   278   0.455E-04    0.257E-03
RMM:  21    -0.377008827927E+03   -0.14643E-05   -0.35703E-08   126   0.358E-04    0.228E-03
RMM:  22    -0.377008829070E+03   -0.11424E-05   -0.44120E-08   144   0.366E-04    0.169E-03
RMM:  23    -0.377008831049E+03   -0.19791E-05   -0.93196E-08   212   0.399E-04    0.899E-04
RMM:  24    -0.377008832734E+03   -0.16848E-05   -0.93378E-08   199   0.382E-04    0.567E-04
RMM:  25    -0.377008834250E+03   -0.15163E-05   -0.78165E-08   186   0.363E-04    0.594E-04
RMM:  26    -0.377008836346E+03   -0.20965E-05   -0.17034E-07   241   0.399E-04    0.563E-04
RMM:  27    -0.377008837326E+03   -0.97963E-06   -0.64706E-08   142   0.331E-04
   7 F= -.41300700E+03 E0= -.41250723E+03  d E =-.999527E+00
       N       E                     dE             d eps       ncg     rms          rms(c)
DAV:   1    -0.377001440895E+03    0.73955E-02   -0.23644E+00   784   0.266E+00    0.574E-01
RMM:   2    -0.377011558198E+03   -0.10117E-01   -0.73740E-02   790   0.334E-01    0.104E+00
RMM:   3    -0.377016615912E+03   -0.50577E-02   -0.46688E-03   791   0.818E-02    0.133E+00
RMM:   4    -0.377015271895E+03    0.13440E-02   -0.50106E-03   792   0.791E-02    0.127E+00
RMM:   5    -0.377012026491E+03    0.32454E-02   -0.41542E-03   789   0.789E-02    0.116E+00
RMM:   6    -0.377008346956E+03    0.36795E-02   -0.27445E-03   789   0.660E-02    0.661E-01
RMM:   7    -0.377006559052E+03    0.17879E-02   -0.12831E-03   788   0.456E-02    0.295E-01
RMM:   8    -0.377006627295E+03   -0.68243E-04   -0.77765E-04   788   0.350E-02    0.288E-01
RMM:   9    -0.377006268831E+03    0.35846E-03   -0.38471E-04   787   0.243E-02    0.150E-01
RMM:  10    -0.377006136364E+03    0.13247E-03   -0.11194E-04   787   0.135E-02    0.534E-02
RMM:  11    -0.377006124500E+03    0.11864E-04   -0.20732E-05   785   0.573E-03    0.299E-02
RMM:  12    -0.377006128471E+03   -0.39703E-05   -0.68496E-06   720   0.327E-03    0.403E-02
RMM:  13    -0.377006123686E+03    0.47851E-05   -0.40765E-06   558   0.272E-03    0.179E-02
RMM:  14    -0.377006123572E+03    0.11339E-06   -0.21332E-06   450   0.210E-03
   8 F= -.41300348E+03 E0= -.41250291E+03  d E =-.100114E+01
       N       E                     dE             d eps       ncg     rms          rms(c)
DAV:   1    -0.376996332269E+03    0.97914E-02   -0.47812E+00   784   0.356E+00    0.587E-01
RMM:   2    -0.377008967535E+03   -0.12635E-01   -0.93465E-02   790   0.400E-01    0.994E-01
RMM:   3    -0.377013555453E+03   -0.45879E-02   -0.67173E-03   791   0.101E-01    0.141E+00
RMM:   4    -0.377006777937E+03    0.67775E-02   -0.36200E-03   791   0.678E-02    0.960E-01
RMM:   5    -0.377005430093E+03    0.13478E-02   -0.38548E-03   789   0.759E-02    0.804E-01
RMM:   6    -0.377003860553E+03    0.15695E-02   -0.27720E-03   789   0.660E-02    0.598E-01
RMM:   7    -0.377002734550E+03    0.11260E-02   -0.12804E-03   788   0.456E-02    0.387E-01
RMM:   8    -0.377002409873E+03    0.32468E-03   -0.68661E-04   789   0.328E-02    0.278E-01
RMM:   9    -0.377002234196E+03    0.17568E-03   -0.40407E-04   788   0.253E-02    0.180E-01
RMM:  10    -0.377002014028E+03    0.22017E-03   -0.15690E-04   788   0.161E-02    0.601E-02
RMM:  11    -0.377001996076E+03    0.17951E-04   -0.27626E-05   786   0.671E-03    0.295E-02
RMM:  12    -0.377001998292E+03   -0.22157E-05   -0.79890E-06   759   0.354E-03    0.316E-02
RMM:  13    -0.377001999446E+03   -0.11534E-05   -0.47915E-06   607   0.287E-03    0.307E-02
RMM:  14    -0.377001996695E+03    0.27506E-05   -0.25759E-06   468   0.225E-03    0.110E-02
RMM:  15    -0.377001997617E+03   -0.92242E-06   -0.10981E-06   418   0.150E-03
   9 F= -.41300006E+03 E0= -.41249993E+03  d E =-.100026E+01
       N       E                     dE             d eps       ncg     rms          rms(c)
DAV:   1    -0.377004372235E+03   -0.23755E-02   -0.23168E+00   784   0.250E+00    0.388E-01
RMM:   2    -0.377013401988E+03   -0.90298E-02   -0.49554E-02   789   0.280E-01    0.850E-01
RMM:   3    -0.377025452452E+03   -0.12050E-01   -0.60392E-03   791   0.880E-02    0.177E+00
RMM:   4    -0.377007541312E+03    0.17911E-01   -0.31732E-03   790   0.662E-02    0.428E-01
RMM:   5    -0.377007212536E+03    0.32878E-03   -0.13635E-03   788   0.462E-02    0.358E-01
RMM:   6    -0.377007185414E+03    0.27123E-04   -0.73805E-04   789   0.342E-02    0.346E-01
RMM:   7    -0.377006803436E+03    0.38198E-03   -0.40787E-04   788   0.263E-02    0.210E-01
RMM:   8    -0.377006689953E+03    0.11348E-03   -0.22236E-04   789   0.191E-02    0.143E-01
RMM:   9    -0.377006678822E+03    0.11131E-04   -0.14280E-04   788   0.152E-02    0.104E-01
RMM:  10    -0.377006605521E+03    0.73301E-04   -0.57645E-05   788   0.982E-03    0.434E-02
RMM:  11    -0.377006592775E+03    0.12746E-04   -0.95416E-06   781   0.412E-03    0.212E-02
RMM:  12    -0.377006592907E+03   -0.13199E-06   -0.23445E-06   463   0.203E-03
  10 F= -.41300365E+03 E0= -.41250308E+03  d E =-.100114E+01
       N       E                     dE             d eps       ncg     rms          rms(c)
DAV:   1    -0.376996016836E+03    0.10576E-01   -0.46365E+00   784   0.352E+00    0.596E-01
RMM:   2    -0.377016551002E+03   -0.20534E-01   -0.11577E-01   789   0.407E-01    0.130E+00
RMM:   3    -0.377036871635E+03   -0.20321E-01   -0.12374E-02   790   0.126E-01    0.242E+00
RMM:   4    -0.377005254197E+03    0.31617E-01   -0.66281E-03   790   0.958E-02    0.741E-01
RMM:   5    -0.377004132104E+03    0.11221E-02   -0.36310E-03   788   0.750E-02    0.578E-01
RMM:   6    -0.377003549842E+03    0.58226E-03   -0.19983E-03   790   0.563E-02    0.478E-01
RMM:   7    -0.377002730647E+03    0.81920E-03   -0.94606E-04   788   0.401E-02    0.284E-01
RMM:   8    -0.377002692165E+03    0.38482E-04   -0.48865E-04   790   0.281E-02    0.274E-01
RMM:   9    -0.377002611491E+03    0.80675E-04   -0.33856E-04   788   0.234E-02    0.190E-01
RMM:  10    -0.377002377924E+03    0.23357E-03   -0.16820E-04   788   0.167E-02    0.659E-02
RMM:  11    -0.377002348309E+03    0.29615E-04   -0.30758E-05   787   0.725E-03    0.247E-02
RMM:  12    -0.377002350738E+03   -0.24292E-05   -0.85436E-06   765   0.367E-03    0.291E-02
RMM:  13    -0.377002351383E+03   -0.64503E-06   -0.45003E-06   596   0.280E-03
  11 F= -.41300065E+03 E0= -.41250049E+03  d E =-.100031E+01
       N       E                     dE             d eps       ncg     rms          rms(c)
DAV:   1    -0.377000941101E+03    0.14096E-02   -0.23233E+00   784   0.249E+00    0.509E-01
RMM:   2    -0.377009046015E+03   -0.81049E-02   -0.57623E-02   790   0.298E-01    0.808E-01
RMM:   3    -0.377007831481E+03    0.12145E-02   -0.61423E-03   792   0.970E-02    0.888E-01
RMM:   4    -0.377010924471E+03   -0.30930E-02   -0.28312E-03   791   0.597E-02    0.115E+00
RMM:   5    -0.377006459222E+03    0.44652E-02   -0.29021E-03   788   0.634E-02    0.795E-01
RMM:   6    -0.377004878801E+03    0.15804E-02   -0.16731E-03   789   0.511E-02    0.529E-01
RMM:   7    -0.377003983087E+03    0.89571E-03   -0.10201E-03   788   0.410E-02    0.288E-01
RMM:   8    -0.377003641172E+03    0.34192E-03   -0.44368E-04   788   0.269E-02    0.153E-01
RMM:   9    -0.377003632231E+03    0.89410E-05   -0.21118E-04   788   0.183E-02    0.139E-01
RMM:  10    -0.377003532270E+03    0.99961E-04   -0.76827E-05   788   0.113E-02    0.611E-02
RMM:  11    -0.377003514651E+03    0.17619E-04   -0.18823E-05   784   0.564E-03    0.353E-02
RMM:  12    -0.377003510889E+03    0.37615E-05   -0.48474E-06   617   0.283E-03    0.243E-02
RMM:  13    -0.377003511221E+03   -0.33220E-06   -0.35547E-06   518   0.249E-03
  12 F= -.41300047E+03 E0= -.41249924E+03  d E =-.100245E+01
       N       E                     dE             d eps       ncg     rms          rms(c)
DAV:   1    -0.376996200333E+03    0.73106E-02   -0.48281E+00   792   0.363E+00    0.736E-01
RMM:   2    -0.377009407583E+03   -0.13207E-01   -0.10157E-01   789   0.404E-01    0.107E+00
RMM:   3    -0.377026500481E+03   -0.17093E-01   -0.87589E-03   792   0.110E-01    0.198E+00
RMM:   4    -0.377018384124E+03    0.81164E-02   -0.10232E-02   788   0.113E-01    0.164E+00
RMM:   5    -0.377010841861E+03    0.75423E-02   -0.64897E-03   790   0.100E-01    0.129E+00
RMM:   6    -0.377005609109E+03    0.52328E-02   -0.39353E-03   788   0.792E-02    0.676E-01
RMM:   7    -0.377003881243E+03    0.17279E-02   -0.19177E-03   789   0.564E-02    0.359E-01
RMM:   8    -0.377003460386E+03    0.42086E-03   -0.84921E-04   789   0.369E-02    0.237E-01
RMM:   9    -0.377003282792E+03    0.17759E-03   -0.34835E-04   788   0.241E-02    0.148E-01
RMM:  10    -0.377003156705E+03    0.12609E-03   -0.11134E-04   789   0.136E-02    0.633E-02
RMM:  11    -0.377003139465E+03    0.17240E-04   -0.27448E-05   786   0.668E-03    0.365E-02
RMM:  12    -0.377003136942E+03    0.25235E-05   -0.10498E-05   781   0.417E-03    0.286E-02
RMM:  13    -0.377003134911E+03    0.20303E-05   -0.50714E-06   636   0.293E-03    0.192E-02
RMM:  14    -0.377003133871E+03    0.10406E-05   -0.21854E-06   443   0.211E-03    0.124E-02
RMM:  15    -0.377003133989E+03   -0.11815E-06   -0.83435E-07   411   0.134E-03
  13 F= -.41300162E+03 E0= -.41250214E+03  d E =-.998963E+00
