ITEM: TIMESTEP
0
ITEM: NUMBER OF ATOMS
3074
ITEM: BOX BOUNDS pp pp pp
0.0000000000000000e+00 3.8693948398131120e+01
0.0000000000000000e+00 4.4679925159782847e+01
0.0000000000000000e+00 6.0000000000000000e+01
ITEM: ATOMS id type x y z c_peratom[1] c_peratom[2] c_peratom[3] c_peratom[4] c_peratom[5] c_peratom[6]
1 2 0 0 0 -205991 -205989 7857.4 0.000281358 0.272135 -9.05406e-05
2 2 3.2245 0 2.279 29869.7 29871.8 -82132 -2.53647e-05 0.36568 -0.000170444
3 2 1.61225 0 4.55799 43157 43159.1 13509.7 -3.48597e-07 0.365737 -0.000270467
4 2 2.41837 1.39625 0 -205991 -205989 7857.4 -0.000374871 0.271885 -6.1889e-05
5 2 0.806124 1.39625 2.279 29869.7 29871.8 -82132 1.37012e-06 0.365921 -0.000338661
6 2 4.03062 1.39625 4.55799 43157 43159.1 13509.7 0.000195391 0.365607 -0.000297496
7 2 0 0 6.83699 43283.9 43286.2 15713.4 -0.000157199 0.543942 0.000102667
8 2 3.2245 0 9.11598 43284.2 43286.4 15716 6.57756e-05 0.366281 0.000271212
9 2 1.61225 0 11.395 43284.2 43286.4 15716 -1.65115e-06 0.36604 0.000198735
10 2 2.41837 1.39625 6.83699 43283.9 43286.2 15713.4 0.000208367 0.54405 0.000158682
11 2 0.806124 1.39625 9.11598 43284.2 43286.4 15716 1.10256e-05 0.36595 0.000495951
12 2 4.03062 1.39625 11.395 43284.2 43286.3 15716 -0.000326847 0.365917 -0.000101562
13 2 0 0 13.674 43283.9 43286.2 15714.8 0.000238917 0.544076 -0.000140236
14 2 3.2245 0 15.953 43284.2 43286.4 15716 -0.000188639 0.365669 -0.000215312
15 2 1.61225 0 18.232 43284.2 43286.3 15714.5 3.77172e-06 0.365836 -0.00018463
16 2 2.41837 1.39625 13.674 43283.9 43286.2 15714.8 -0.000336659 0.543895 -0.000359429
17 2 0.806124 1.39625 15.953 43284.2 43286.4 15716 -3.33829e-05 0.365865 -0.000443299
18 2 4.03062 1.39625 18.232 43284.2 43286.3 15714.5 0.000374548 0.366151 0.000222241
19 2 0 0 20.511 43156.6 43158.9 13508.6 -0.000143546 0.543946 4.73023e-05
20 2 3.2245 0 22.79 29869.7 29871.8 -82132 0.00011514 0.366067 5.05496e-05
21 2 1.61225 0 25.069 -205991 -205989 7858.55 -2.33933e-06 0.0939728 0.000156262
22 2 2.41837 1.39625 20.511 43156.6 43158.9 13508.6 0.000286435 0.544169 0.00021309
23 2 0.806124 1.39625 22.79 29869.7 29871.8 -82132 -5.02355e-05 0.365981 0.000116842
24 2 4.03062 1.39625 25.069 -205991 -205989 7858.55 0.000880763 0.0937333 -0.000142164
25 2 0 2.7925 0 -205991 -205989 7857.4 0.0003552 0.272045 4.07483e-05
26 2 3.2245 2.7925 2.279 29869.7 29871.8 -82132 -0.000104602 0.365848 -0.000311994
27 2 1.61225 2.7925 4.55799 43157 43159.1 13509.7 1.17369e-05 0.365815 -0.000626359
28 2 2.41837 4.18874 0 -205991 -205989 7857.4 -0.000473184 0.271879 2.37284e-06
29 2 0.806124 4.18874 2.279 29869.7 29871.8 -82132 -2.15718e-05 0.365881 -0.000334323
30 2 4.03062 4.18874 4.55799 43157 43159.1 13509.7 0.000222351 0.366061 -0.000259622
31 2 0 2.7925 6.83699 43283.9 43286.2 15713.4 -0.000184213 0.54399 0.000107759
32 2 3.2245 2.7925 9.11598 43284.2 43286.4 15716 0.000101229 0.365934 0.00033707
33 2 1.61225 2.7925 11.395 43284.2 43286.4 15716 -6.24864e-05 0.365894 7.90947e-05
34 2 2.41837 4.18874 6.83699 43283.9 43286.2 15713.4 0.000214176 0.544074 0.000179916
35 2 0.806124 4.18874 9.11598 43284.2 43286.4 15716 7.03488e-05 0.366031 0.000352597
36 2 4.03062 4.18874 11.395 43284.2 43286.4 15716 -0.000291157 0.365677 -0.000205622
37 2 0 2.7925 13.674 43283.9 43286.2 15714.8 0.000116522 0.544022 -0.000388398
38 2 3.2245 2.7925 15.953 43284.2 43286.4 15716 8.14403e-05 0.366084 -0.000171957
39 2 1.61225 2.7925 18.232 43284.2 43286.3 15714.5 4.23613e-05 0.366004 3.50464e-05
40 2 2.41837 4.18874 13.674 43283.9 43286.2 15714.8 -6.9394e-05 0.544002 -0.00045847
41 2 0.806124 4.18874 15.953 43284.2 43286.4 15716 -0.000203445 0.365778 -0.000235845
42 2 4.03062 4.18874 18.232 43284.2 43286.3 15714.5 0.00101128 0.366393 0.000380903
43 2 0 2.7925 20.511 43156.6 43158.9 13508.6 -0.000330576 0.5439 0.000269009
44 2 3.2245 2.7925 22.79 29869.7 29871.8 -82132 0.000333733 0.366 0.000116709
45 2 1.61225 2.7925 25.069 -205991 -205989 7858.55 0.000488463 0.093846 7.55353e-05
46 2 2.41837 4.18874 20.511 43156.6 43158.9 13508.6 0.000651984 0.544229 0.000556992
47 2 0.806124 4.18874 22.79 29869.7 29871.8 -82132 0.000183532 0.36604 0.000163014
48 2 4.03062 4.18874 25.069 -205991 -205989 7858.55 -0.00132982 0.0934013 -0.000344405
49 2 0 5.58499 0 -205991 -205989 7857.4 7.75327e-05 0.271946 -7.82572e-06
50 2 3.2245 5.58499 2.279 29869.7 29871.8 -82132 -2.44766e-05 0.366041 -0.000144219
51 2 1.61225 5.58499 4.55799 43157 43159.1 13509.7 6.04714e-05 0.365969 -0.000242883
52 2 2.41837 6.98124 0 -205991 -205989 7857.4 -0.000136655 0.271941 -0.000119455
53 2 0.806124 6.98124 2.279 29869.7 29871.8 -82132 -2.41058e-05 0.365887 -8.80968e-05
54 2 4.03062 6.98124 4.55799 43157 43159.1 13509.7 0.00015955 0.366124 -2.23336e-05
55 2 0 5.58499 6.83699 43283.9 43286.2 15713.4 2.09523e-05 0.544163 0.000160695
56 2 3.2245 5.58499 9.11598 43284.2 43286.4 15716 -0.000299321 0.365501 -0.000125288
57 2 1.61225 5.58499 11.395 43284.2 43286.4 15716 -0.000170392 0.365767 -0.00047289
58 2 2.41837 6.98124 6.83699 43283.8 43286.2 15713.4 -9.17588e-05 0.543793 6.83317e-05
59 2 0.806124 6.98124 9.11598 43284.2 43286.4 15716 -1.75854e-05 0.365949 -0.000201596
60 2 4.03062 6.98124 11.395 43284.2 43286.4 15716 0.000489364 0.366613 0.000380106
61 2 0 5.58499 13.674 43283.9 43286.2 15714.8 -0.000423657 0.543611 -0.00041536
62 2 3.2245 5.58499 15.953 43284.2 43286.4 15716 0.00124583 0.366644 0.00039917
63 2 1.61225 5.58499 18.232 43284.2 43286.3 15714.5 0.000680264 0.366232 0.00074819
64 2 2.41837 6.98124 13.674 43283.9 43286.2 15714.8 0.000866785 0.544793 0.0001639
65 2 0.806124 6.98124 15.953 43284.2 43286.4 15716 0.000215991 0.366072 0.000457443
66 2 4.03062 6.98124 18.232 43284.2 43286.3 15714.5 -0.001875 0.36433 -0.00116401
67 2 0 5.58499 20.511 43156.6 43158.9 13508.6 0.000555072 0.544386 0.000508527
68 2 3.2245 5.58499 22.79 29869.7 29871.8 -82132 -0.000765711 0.365705 -9.98727e-05
69 2 1.61225 5.58499 25.069 -205991 -205989 7858.55 -0.000139207 0.0935407 -0.000547866
70 2 2.41837 6.98124 20.511 43156.6 43158.9 13508.6 -0.00125624 0.543196 -9.31817e-05
71 2 0.806124 6.98124 22.79 29869.7 29871.8 -82132 0.000237732 0.365946 -2.76217e-05
72 2 4.03062 6.98124 25.069 -205991 -205989 7858.55 -0.00238425 0.0949149 0.000900252
73 2 0 8.37749 0 -205991 -205989 7857.4 -0.0002122 0.271839 -0.000272125
74 2 3.2245 8.37749 2.279 29869.7 29871.8 -82132 0.000117785 0.366152 7.33294e-05
75 2 1.61225 8.37749 4.55799 43157 43159.1 13509.7 9.09454e-05 0.365991 0.000301852
76 2 2.41837 9.77373 0 -205991 -205989 7857.4 0.000204278 0.272165 -0.000280545
77 2 0.806124 9.77373 2.279 29869.7 29871.8 -82132 -6.7469e-06 0.365925 9.13606e-05
78 2 4.03062 9.77373 4.55799 43157 43159.1 13509.7 6.10253e-05 0.365632 -1.70172e-05
79 2 0 8.37749 6.83699 43283.8 43286.2 15713.4 0.000175179 0.544374 0.000127319
80 2 3.2245 8.37749 9.11598 43284.2 43286.4 15716 -0.000248111 0.365692 -0.000168318
81 2 1.61225 8.37749 11.395 43284.2 43286.4 15716 0.000100658 0.366139 -0.000259862
82 2 2.41837 9.77373 6.83699 43283.9 43286.2 15713.4 -0.000255928 0.543379 -0.000158877
83 2 0.806124 9.77373 9.11598 43284.2 43286.4 15716 -0.000107427 0.365789 -0.000356461
84 2 4.03062 9.77373 11.395 43284.2 43286.4 15716 0.00114513 0.367746 0.000854311
85 2 0 8.37749 13.674 43283.9 43286.2 15714.8 -0.000462806 0.543509 0.000115491
86 2 3.2245 8.37749 15.953 43284.2 43286.3 15716 -0.000192113 0.365273 -0.000418923
87 2 1.61225 8.37749 18.232 43284.2 43286.3 15714.5 -0.000241001 0.365498 0.000178419
88 2 2.41837 9.77373 13.674 43283.9 43286.2 15714.8 0.000905132 0.544975 0.000629878
89 2 0.806124 9.77373 15.953 43284.2 43286.3 15716 0.000666017 0.36657 0.000516215
90 2 4.03062 9.77373 18.232 43284.2 43286.3 15714.5 -0.00262062 0.36414 -0.000814339
91 2 0 8.37749 20.511 43156.6 43158.9 13508.6 0.00148066 0.54465 0.000105046
92 2 3.2245 8.37749 22.79 29869.7 29871.8 -82132 -0.000814939 0.366048 0.000130318
93 2 1.61225 8.37749 25.069 -205991 -205989 7858.55 -0.00196647 0.0940548 -9.99382e-05
94 2 2.41837 9.77373 20.511 43156.6 43158.9 13508.6 -0.00253142 0.543032 -0.000505486
95 2 0.806124 9.77373 22.79 29869.7 29871.8 -82132 -0.000499049 0.365714 -0.000101595
96 2 4.03062 9.77373 25.069 -205991 -205989 7858.55 0.00647732 0.0952346 0.000656175
97 2 0 11.17 0 -205991 -205989 7857.4 -0.000254912 0.271742 -0.000345394
98 2 3.2245 11.17 2.279 29869.7 29871.8 -82132 0.000150797 0.366166 0.000113885
99 2 1.61225 11.17 4.55799 43157 43159.1 13509.7 5.25512e-05 0.365828 0.000209788
100 2 2.41837 12.5662 0 -205991 -205989 7857.4 0.000213562 0.272453 -7.10642e-05
101 2 0.806124 12.5662 2.279 29869.7 29871.8 -82132 1.34842e-05 0.365969 8.44346e-05
102 2 4.03062 12.5662 4.55799 43157 43159.1 13509.7 -6.99978e-05 0.365175 -0.000313039
103 2 0 11.17 6.83699 43283.8 43286.2 15713.4 0.000100987 0.544366 -0.000209411
104 2 3.2245 11.17 9.11598 43284.2 43286.4 15716 0.00043623 0.36663 0.000308046
105 2 1.61225 11.17 11.395 43284.2 43286.4 15716 0.00050228 0.366711 0.000604852
106 2 2.41837 12.5662 6.83699 43283.9 43286.2 15713.4 -7.44147e-05 0.543421 -0.000458072
107 2 0.806124 12.5662 9.11598 43284.2 43286.4 15716 -5.64317e-05 0.365772 -0.000108733
108 2 4.03062 12.5662 11.395 43284.2 43286.3 15716 0.000441764 0.366512 -2.70547e-06
109 2 0 11.17 13.674 43283.9 43286.2 15714.8 0.000318281 0.544525 0.000672121
110 2 3.2245 11.17 15.953 43284.2 43286.3 15716 -0.00332443 0.362259 -0.00177272
111 2 1.61225 11.17 18.232 43284.2 43286.3 15714.5 -0.00233386 0.364095 -0.00141822
112 2 2.41837 12.5662 13.674 43283.9 43286.2 15714.8 -0.000843957 0.542563 -2.95821e-05
113 2 0.806124 12.5662 15.953 43284.2 43286.3 15716 9.49067e-05 0.366254 -0.000654331
114 2 4.03062 12.5662 18.232 43284.2 43286.3 15714.6 0.00163923 0.368026 0.00156054
115 2 0 11.17 20.511 43156.6 43158.9 13508.6 -0.000385817 0.5431 -0.000233279
116 2 3.2245 11.17 22.79 29869.7 29871.8 -82132 0.00111037 0.366641 0.000390965
117 2 1.61225 11.17 25.069 -205991 -205989 7858.55 0.000302764 0.0951198 0.000846146
118 2 2.41837 12.5662 20.511 43156.6 43158.9 13508.6 0.00100236 0.545501 0.000616368
119 2 0.806124 12.5662 22.79 29869.7 29871.8 -82132 -0.000308584 0.365878 0.000126766
120 2 4.03062 12.5662 25.069 -205991 -205989 7858.54 0.0102077 0.0888714 -0.00350041
121 2 0 13.9625 0 -205991 -205989 7857.4 -0.000105788 0.271726 0.000107572
122 2 3.2245 13.9625 2.279 29869.7 29871.8 -82132 2.35693e-05 0.366092 1.08887e-05
123 2 1.61225 13.9625 4.55799 43157 43159.1 13509.7 -3.64299e-05 0.365645 -0.000393238
124 2 2.41837 15.3587 0 -205991 -205989 7857.4 7.58412e-06 0.272583 0.000462224
125 2 0.806124 15.3587 2.279 29869.7 29871.8 -82132 1.3394e-05 0.365995 1.60855e-05
126 2 4.03062 15.3587 4.55799 43157 43159.1 13509.7 -0.000207321 0.365226 -0.000546588
127 2 0 13.9625 6.83699 43283.8 43286.2 15713.4 -2.74316e-05 0.544063 -0.000710678
128 2 3.2245 13.9625 9.11598 43284.2 43286.4 15716 0.000939103 0.36762 0.000470382
129 2 1.61225 13.9625 11.395 43284.2 43286.4 15716 0.000507434 0.366734 0.001014
130 2 2.41837 15.3587 6.83699 43283.9 43286.2 15713.4 0.000131525 0.544037 -0.000681071
131 2 0.806124 15.3587 9.11598 43284.2 43286.4 15716 4.70143e-05 0.365871 8.35294e-06
132 2 4.03062 15.3587 11.395 43284.2 43286.3 15716 -0.000817676 0.362939 -0.00127943
133 2 0 13.9625 13.674 43283.9 43286.2 15714.8 0.00105472 0.546362 0.000502015
134 2 3.2245 13.9625 15.953 43284.2 43286.4 15716 -0.00176797 0.363699 -0.000515516
135 2 1.61225 13.9625 18.232 43284.2 43286.3 15714.5 -0.00105641 0.365302 -0.000831965
136 2 2.41837 15.3587 13.674 43283.9 43286.2 15714.8 -0.00208223 0.53933 -0.000832321
137 2 0.806124 15.3587 15.953 43284.2 43286.3 15716 -0.000599423 0.365385 -0.00129982
138 2 4.03062 15.3587 18.232 43284.2 43286.3 15714.5 0.00666447 0.375503 0.00415449
139 2 0 13.9625 20.511 43156.6 43158.9 13508.6 -0.0019901 0.541575 0.000237936
140 2 3.2245 13.9625 22.79 29869.7 29871.8 -82132 0.00469604 0.367364 0.000450839
141 2 1.61225 13.9625 25.069 -205991 -205989 7858.56 0.00445717 0.0942609 0.000432128
142 2 2.41837 15.3587 20.511 43156.6 43158.9 13508.6 0.00388464 0.548227 0.00138825
143 2 0.806124 15.3587 22.79 29869.7 29871.8 -82132 4.71814e-05 0.366007 0.000101777
144 2 4.03062 15.3587 25.069 -205991 -205989 7858.54 -0.0109985 0.0810672 -0.0052467
145 2 0 16.755 0 -205991 -205989 7857.4 1.09528e-05 0.2718 0.000615351
146 2 3.2245 16.755 2.279 29869.7 29871.8 -82132 -9.52784e-05 0.365978 -4.78574e-05
147 2 1.61225 16.755 4.55799 43157 43159.1 13509.7 -0.000105798 0.3656 -0.00069579
148 2 2.41837 18.1512 0 -205991 -205989 7857.4 -0.000101106 0.272509 0.000621579
149 2 0.806124 18.1512 2.279 29869.7 29871.8 -82132 -3.48389e-06 0.365996 1.44273e-06
150 2 4.03062 18.1512 4.55799 43157 43159.1 13509.7 -0.000212255 0.365565 -0.000425666
151 2 0 16.755 6.83699 43283.8 43286.2 15713.4 -5.14436e-05 0.543675 -0.000889412
152 2 3.2245 16.755 9.11598 43284.2 43286.3 15716 0.000761359 0.36799 9.83399e-05
153 2 1.61225 16.755 11.395 43284.2 43286.3 15716 0.000119863 0.365856 0.000581911
154 2 2.41837 18.1512 6.83699 43283.9 43286.2 15713.4 0.000131955 0.544761 -0.000545359
155 2 0.806124 18.1512 9.11598 43284.2 43286.4 15716 9.07721e-05 0.365955 -3.9366e-05
156 2 4.03062 18.1512 11.395 43284.2 43286.3 15716 -0.000937363 0.360643 -0.00122699
157 2 0 16.755 13.674 43283.9 43286.2 15714.8 0.000910271 0.547692 -0.000137252
158 2 3.2245 16.755 15.953 43284.3 43286.4 15716 0.00030399 0.366815 0.000583209
159 2 1.61225 16.755 18.232 43284.2 43286.3 15714.5 0.000685281 0.367447 0.000231237
160 2 2.41837 18.1512 13.674 43283.9 43286.2 15714.8 -0.00144299 0.538404 -0.000672969
161 2 0.806124 18.1512 15.953 43284.2 43286.3 15716 -0.000425369 0.365283 -0.000779829
162 2 4.03062 18.1512 18.232 43284.2 43286.3 15714.5 0.00686169 0.382348 0.00363794
163 2 0 16.755 20.511 43156.6 43159 13508.6 -0.0013666 0.541565 0.000528961
164 2 3.2245 16.755 22.79 29869.6 29871.8 -82132 0.00145758 0.362847 -0.00129388
165 2 1.61225 16.755 25.069 -205991 -205989 7858.55 0.0041906 0.0910608 -0.000506465
166 2 2.41837 18.1512 20.511 43156.6 43158.9 13508.6 0.00421686 0.55055 0.00123763
167 2 0.806124 18.1512 22.79 29869.7 29871.8 -82132 0.00019306 0.366058 0.000125297
168 2 4.03062 18.1512 25.069 -205991 -205989 7858.55 -0.0172404 0.0866406 -0.00126513
169 2 0 19.5475 0 -205991 -205989 7857.4 1.06815e-05 0.271867 0.000445333
170 2 3.2245 19.5475 2.279 29869.7 29871.8 -82132 -7.43555e-05 0.365894 -3.31544e-05
171 2 1.61225 19.5475 4.55799 43157 43159.1 13509.7 -9.06167e-05 0.36565 -0.00037563
172 2 2.41837 20.9437 0 -205991 -205989 7857.4 -4.30624e-05 0.272412 8.18536e-05
173 2 0.806124 20.9437 2.279 29869.7 29871.8 -82132 -1.48571e-05 0.365983 -5.41329e-06
174 2 4.03062 20.9437 4.55799 43157 43159.1 13509.7 -2.70877e-05 0.365779 -3.9506e-05
175 2 0 19.5475 6.83699 43283.9 43286.2 15713.4 -1.44518e-05 0.543469 -0.000476115
176 2 3.2245 19.5475 9.11598 43284.2 43286.3 15716 0.000234301 0.367747 -0.000138592
177 2 1.61225 19.5475 11.395 43284.2 43286.3 15716 -0.000139544 0.364704 3.47127e-05
178 2 2.41837 20.9437 6.83699 43283.9 43286.2 15713.4 3.68875e-05 0.545138 -2.18692e-05
179 2 0.806124 20.9437 9.11598 43284.2 43286.4 15716 8.2595e-05 0.365974 4.19343e-06
180 2 4.03062 20.9437 11.395 43284.2 43286.3 15716 -0.000231924 0.360442 -0.000288909
181 2 0 19.5475 13.674 43283.9 43286.2 15714.8 0.000203666 0.548064 -0.000271565
182 2 3.2245 19.5475 15.953 43284.3 43286.4 15716 0.000716176 0.369108 0.000654196
183 2 1.61225 19.5475 18.232 43284.2 43286.3 15714.6 0.000813723 0.368716 0.000350574
184 2 2.41837 20.9437 13.674 43283.9 43286.2 15714.8 -0.000276328 0.538876 -9.56998e-05
185 2 0.806124 20.9437 15.953 43284.2 43286.4 15716 -0.000116386 0.365792 -0.00010401
186 2 4.03062 20.9437 18.232 43284.2 43286.3 15714.5 3.86044e-05 0.379239 -8.56726e-05
187 2 0 19.5475 20.511 43156.7 43159 13508.6 -0.000302975 0.541744 0.000351112
188 2 3.2245 19.5475 22.79 29869.6 29871.7 -82132 -0.00359461 0.356709 -0.00169599
189 2 1.61225 19.5475 25.069 -205991 -205989 7858.55 0.00101927 0.0878464 -0.000611047
190 2 2.41837 20.9437 20.511 43156.6 43158.9 13508.5 0.000812693 0.550209 3.75638e-05
191 2 0.806124 20.9437 22.79 29869.7 29871.8 -82132 0.000217153 0.365987 3.12079e-05
192 2 4.03062 20.9437 25.069 -205991 -205989 7858.56 -0.00463727 0.0940226 0.000443347
193 2 0 22.34 0 -205991 -205989 7857.4 -2.23391e-05 0.271844 -0.000263507
194 2 3.2245 22.34 2.279 29869.7 29871.8 -82132 2.5842e-05 0.365881 -8.93536e-06
195 2 1.61225 22.34 4.55799 43157 43159.1 13509.7 -1.23573e-06 0.365677 0.000196627
196 2 2.41837 23.7362 0 -205991 -205989 7857.4 5.09892e-05 0.272445 -0.000552596
197 2 0.806124 23.7362 2.279 29869.7 29871.8 -82132 -7.61153e-06 0.365968 -2.57803e-05
198 2 4.03062 23.7362 4.55799 43157 43159.1 13509.7 0.000191914 0.365727 0.000335604
199 2 0 22.34 6.83699 43283.9 43286.2 15713.4 2.76315e-05 0.543538 0.000223876
200 2 3.2245 22.34 9.11598 43284.2 43286.3 15716 -0.000161753 0.367547 4.54552e-05
201 2 1.61225 22.34 11.395 43284.2 43286.3 15716 -1.3428e-05 0.364235 -0.000148001
202 2 2.41837 23.7362 6.83699 43283.9 43286.2 15713.4 -5.42204e-05 0.545044 0.000515298
203 2 0.806124 23.7362 9.11598 43284.2 43286.4 15716 7.37794e-05 0.365996 5.88377e-05
204 2 4.03062 23.7362 11.395 43284.2 43286.3 15716 0.00045967 0.36109 0.000593634
205 2 0 22.34 13.674 43283.9 43286.2 15714.8 -0.000552716 0.548051 0.000237304
206 2 3.2245 22.34 15.953 43284.3 43286.4 15716 4.9813e-05 0.369984 1.5959e-05
207 2 1.61225 22.34 18.232 43284.2 43286.3 15714.6 2.04245e-05 0.369442 1.23603e-05
208 2 2.41837 23.7362 13.674 43283.9 43286.2 15714.8 0.000742846 0.539081 0.00031412
209 2 0.806124 23.7362 15.953 43284.2 43286.4 15716 -0.000147194 0.366294 0.000547049
210 2 4.03062 23.7362 18.232 43284.2 43286.3 15714.5 -0.00475958 0.377069 -0.0024086
211 2 0 22.34 20.511 43156.7 43159 13508.6 0.000701766 0.541802 -0.000175384
212 2 3.2245 22.34 22.79 29869.6 29871.8 -82132 -0.0010562 0.356155 -4.40666e-05
213 2 1.61225 22.34 25.069 -205991 -205989 7858.55 -1.11915e-05 0.0868913 -3.57037e-05
214 2 2.41837 23.7362 20.511 43156.6 43158.9 13508.5 -0.00273312 0.550016 -0.000835028
215 2 0.806124 23.7362 22.79 29869.7 29871.8 -82132 0.000118935 0.36589 -0.000119957
216 2 4.03062 23.7362 25.069 -205991 -205989 7858.56 0.00603664 0.0943287 0.000592588
217 2 0 25.1325 0 -205991 -205989 7857.4 2.89787e-05 0.27176 -0.000664917
218 2 3.2245 25.1325 2.279 29869.7 29871.8 -82132 9.28321e-05 0.365949 8.90511e-06
219 2 1.61225 25.1325 4.55799 43157 43159.1 13509.7 9.07621e-05 0.365643 0.000573968
220 2 2.41837 26.5287 0 -205991 -205989 7857.4 3.92261e-05 0.272567 -0.000559638
221 2 0.806124 26.5287 2.279 29869.7 29871.8 -82132 1.66013e-05 0.365955 -4.89872e-05
222 2 4.03062 26.5287 4.55799 43157 43159.1 13509.7 0.000246645 0.365488 0.000449204
223 2 0 25.1325 6.83699 43283.9 43286.2 15713.4 5.15784e-05 0.543843 0.00073793
224 2 3.2245 25.1325 9.11598 43284.2 43286.3 15716 -0.00052294 0.367634 8.40597e-05
225 2 1.61225 25.1325 11.395 43284.2 43286.3 15716 0.000120535 0.364734 -0.000448143
226 2 2.41837 26.5287 6.83699 43283.9 43286.2 15713.4 -0.000124375 0.544514 0.000667172
227 2 0.806124 26.5287 9.11598 43284.2 43286.4 15716 1.67711e-05 0.366081 -8.16755e-06
228 2 4.03062 26.5287 11.395 43284.2 43286.3 15716 0.000677381 0.362478 0.00101931
229 2 0 25.1325 13.674 43283.9 43286.2 15714.8 -0.00112862 0.547488 0.000564706
230 2 3.2245 25.1325 15.953 43284.3 43286.4 15716 -0.000396522 0.368554 -0.000570889
231 2 1.61225 25.1325 18.232 43284.2 43286.3 15714.5 -0.000971331 0.369421 -0.000169327
232 2 2.41837 26.5287 13.674 43283.9 43286.2 15714.8 0.00157877 0.539283 0.000421797
233 2 0.806124 26.5287 15.953 43284.2 43286.3 15716 -0.000258143 0.366214 0.00124647
234 2 4.03062 26.5287 18.232 43284.2 43286.3 15714.5 -0.00640634 0.376191 -0.00386213
235 2 0 25.1325 20.511 43156.7 43159 13508.6 0.00120785 0.54222 -0.00055033
236 2 3.2245 25.1325 22.79 29869.6 29871.8 -82132 0.000648613 0.359472 0.00122281
237 2 1.61225 25.1325 25.069 -205991 -205989 7858.55 -0.00101415 0.0881847 0.000301931
238 2 2.41837 26.5287 20.511 43156.6 43158.9 13508.6 -0.00476595 0.549958 -0.00120888
239 2 0.806124 26.5287 22.79 29869.7 29871.8 -82132 -1.33418e-05 0.365959 -0.000103577
240 2 4.03062 26.5287 25.069 -205991 -205989 7858.55 0.0122473 0.0895584 0.00197664
241 2 0 27.925 0 -205991 -205989 7857.4 0.000185056 0.27172 -0.000338536
242 2 3.2245 27.925 2.279 29869.7 29871.8 -82132 3.7771e-05 0.366074 -1.20486e-05
243 2 1.61225 27.925 4.55799 43157 43159.1 13509.7 0.000106792 0.365593 0.000440622
244 2 2.41837 29.3212 0 -205991 -205989 7857.4 -0.000116068 0.272585 -5.61014e-05
245 2 0.806124 29.3212 2.279 29869.7 29871.8 -82132 2.93664e-05 0.365942 -8.88615e-05
246 2 4.03062 29.3212 4.55799 43157 43159.1 13509.7 0.000125155 0.365339 0.000279162
247 2 0 27.925 6.83699 43283.8 43286.2 15713.4 -1.94686e-05 0.544225 0.000802785
248 2 3.2245 27.925 9.11598 43284.2 43286.3 15716 -0.000818546 0.367576 -0.000206697
249 2 1.61225 27.925 11.395 43284.2 43286.3 15716 -9.82034e-05 0.365832 -0.000824393
250 2 2.41837 29.3212 6.83699 43283.9 43286.2 15713.4 -6.08508e-05 0.543796 0.000441305
251 2 0.806124 29.3212 9.11598 43284.2 43286.4 15716 -0.000101515 0.366171 4.19674e-05
252 2 4.03062 29.3212 11.395 43284.2 43286.3 15716 0.000143571 0.364881 0.000716459
253 2 0 27.925 13.674 43283.9 43286.2 15714.8 -0.000916469 0.545762 -5.67194e-05
254 2 3.2245 27.925 15.953 43284.2 43286.4 15716 0.000339903 0.366098 -0.000439069
255 2 1.61225 27.925 18.232 43284.2 43286.3 15714.5 -0.0009494 0.368062 0.000247979
256 2 2.41837 29.3212 13.674 43283.9 43286.2 15714.8 0.00154829 0.540898 0.000249438
257 2 0.806124 29.3212 15.953 43284.2 43286.3 15716 0.000261193 0.365342 0.0010873
258 2 4.03062 29.3212 18.232 43284.2 43286.3 15714.5 -0.00407817 0.371258 -0.00315251
259 2 0 27.925 20.511 43156.6 43159 13508.6 0.000956272 0.542858 -0.000459344
260 2 3.2245 27.925 22.79 29869.6 29871.8 -82132 -0.00231635 0.364594 0.000740814
261 2 1.61225 27.925 25.069 -205991 -205989 7858.55 -0.00414532 0.0911904 3.05244e-05
262 2 2.41837 29.3212 20.511 43156.6 43158.9 13508.6 -0.00361616 0.547799 -0.00109524
263 2 0.806124 29.3212 22.79 29869.7 29871.8 -82132 -0.000214279 0.366057 -0.00012676
264 2 4.03062 29.3212 25.069 -205991 -205989 7858.54 0.00512613 0.0874607 0.00379887
265 2 0 30.7174 0 -205991 -205989 7857.4 0.000271367 0.271781 0.000220361
266 2 3.2245 30.7174 2.279 29869.7 29871.8 -82132 -9.44219e-05 0.366183 -6.68023e-05
267 2 1.61225 30.7174 4.55799 43157 43159.1 13509.7 3.7586e-05 0.365641 -3.20648e-05
268 2 2.41837 32.1137 0 -205991 -205989 7857.4 -0.00022225 0.272386 0.000294003
269 2 0.806124 32.1137 2.279 29869.7 29871.8 -82132 8.28547e-06 0.365928 -7.18137e-05
270 2 4.03062 32.1137 4.55799 43157 43159.1 13509.7 -4.22837e-05 0.365559 0.000118398
271 2 0 30.7174 6.83699 43283.8 43286.2 15713.4 -0.000154524 0.544409 0.000490465
272 2 3.2245 30.7174 9.11598 43284.2 43286.4 15716 -0.000674017 0.366973 -0.000352647
273 2 1.61225 30.7174 11.395 43284.2 43286.4 15716 -0.000470262 0.366696 -0.00067166
274 2 2.41837 32.1137 6.83699 43283.9 43286.2 15713.4 0.000138956 0.543362 0.000158129
275 2 0.806124 32.1137 9.11598 43284.2 43286.4 15716 -0.00014172 0.366148 0.000271064
276 2 4.03062 32.1137 11.395 43284.2 43286.3 15716 -0.000668483 0.366884 -0.000158802
277 2 0 30.7174 13.674 43283.9 43286.2 15714.8 9.84676e-05 0.543895 -0.000964479
278 2 3.2245 30.7174 15.953 43284.2 43286.4 15716 0.00182643 0.363893 0.000456477
279 2 1.61225 30.7174 18.232 43284.2 43286.3 15714.5 0.00118554 0.365199 0.000778077
280 2 2.41837 32.1137 13.674 43283.9 43286.2 15714.8 0.000139756 0.543676 -6.78331e-05
281 2 0.806124 32.1137 15.953 43284.2 43286.3 15716 0.000794367 0.365012 -0.00026427
282 2 4.03062 32.1137 18.232 43284.2 43286.3 15714.5 -0.000623219 0.366855 -0.00113323
283 2 0 30.7174 20.511 43156.6 43158.9 13508.6 -0.000605179 0.544048 0.000396095
284 2 3.2245 30.7174 22.79 29869.7 29871.8 -82132 -0.0028646 0.366918 -0.000346121
285 2 1.61225 30.7174 25.069 -205991 -205989 7858.55 -0.00471126 0.0942814 -0.000338019
286 2 2.41837 32.1137 20.511 43156.6 43158.9 13508.6 2.32552e-05 0.544703 -0.000524649
287 2 0.806124 32.1137 22.79 29869.7 29871.8 -82132 -0.000400443 0.366221 2.88227e-05
288 2 4.03062 32.1137 25.069 -205991 -205989 7858.55 -0.00566033 0.0919026 0.00186222
289 2 0 33.5099 0 -205991 -205989 7857.4 9.53805e-05 0.271892 0.000410922
290 2 3.2245 33.5099 2.279 29869.7 29871.8 -82132 -0.00013967 0.366202 -2.38959e-05
291 2 1.61225 33.5099 4.55799 43157 43159.1 13509.7 -4.97199e-05 0.365825 -0.000200255
292 2 2.41837 34.9062 0 -205991 -205989 7857.4 -3.28376e-05 0.272082 0.000271624
293 2 0.806124 34.9062 2.279 29869.7 29871.8 -82132 -1.66418e-05 0.365926 0.000100845
294 2 4.03062 34.9062 4.55799 43157 43159.1 13509.7 -0.000204222 0.365976 0.000173661
295 2 0 33.5099 6.83699 43283.8 43286.2 15713.4 -0.000129479 0.544291 3.81252e-05
296 2 3.2245 33.5099 9.11598 43284.2 43286.4 15716 -0.000113262 0.36607 -0.000188451
297 2 1.61225 33.5099 11.395 43284.2 43286.4 15716 -0.000512044 0.366738 -5.66104e-05
298 2 2.41837 34.9062 6.83699 43283.9 43286.2 15713.4 0.000180557 0.543507 -4.8811e-05
299 2 0.806124 34.9062 9.11598 43284.2 43286.4 15716 -7.56409e-06 0.365989 0.00021263
300 2 4.03062 34.9062 11.395 43284.2 43286.4 15716 -0.00064198 0.366902 -0.000577756
301 2 0 33.5099 13.674 43283.9 43286.2 15714.8 0.000555633 0.543436 -0.000748446
302 2 3.2245 33.5099 15.953 43284.2 43286.3 15716 0.00148767 0.364243 0.000997823
303 2 1.61225 33.5099 18.232 43284.2 43286.3 15714.5 0.00222997 0.364137 0.000170185
304 2 2.41837 34.9062 13.674 43283.9 43286.2 15714.8 -0.00095061 0.545013 -9.6935e-05
305 2 0.806124 34.9062 15.953 43284.2 43286.4 15716 0.000229239 0.365673 -0.000677424
306 2 4.03062 34.9062 18.232 43284.2 43286.3 15714.5 0.00153299 0.364809 0.00069649
307 2 0 33.5099 20.511 43156.6 43158.9 13508.5 -0.00140878 0.54475 0.000702877
308 2 3.2245 33.5099 22.79 29869.7 29871.8 -82132 -0.000468792 0.366375 -0.000356339
309 2 1.61225 33.5099 25.069 -205991 -205989 7858.55 -0.000324097 0.0951918 -5.4521e-05
310 2 2.41837 34.9062 20.511 43156.6 43158.9 13508.6 0.00216687 0.542995 -4.54936e-05
311 2 0.806124 34.9062 22.79 29869.7 29871.8 -82132 0.000298511 0.366007 0.000156604
312 2 4.03062 34.9062 25.069 -205991 -205989 7858.55 -0.00236747 0.0945472 -0.000578227
313 2 0 36.3024 0 -205991 -205989 7857.4 -0.000231192 0.271995 0.000247801
314 2 3.2245 36.3024 2.279 29869.7 29871.8 -82132 -4.95816e-05 0.366097 0.000154896
315 2 1.61225 36.3024 4.55799 43157 43159.1 13509.7 -8.85085e-05 0.365991 0.000175326
316 2 2.41837 37.6987 0 -205991 -205989 7857.4 0.000355572 0.271862 0.00011161
317 2 0.806124 37.6987 2.279 29869.7 29871.8 -82132 -1.24754e-05 0.365945 0.000329731
318 2 4.03062 37.6987 4.55799 43157 43159.1 13509.7 -0.0002916 0.366063 0.000308011
319 2 0 36.3024 6.83699 43283.9 43286.2 15713.4 9.49153e-05 0.544064 -0.000277125
320 2 3.2245 36.3024 9.11598 43284.2 43286.4 15716 0.000282242 0.365568 -7.79887e-05
321 2 1.61225 36.3024 11.395 43284.2 43286.4 15716 -0.000110068 0.366152 0.00031655
322 2 2.41837 37.6987 6.83699 43283.9 43286.2 15713.4 -7.13193e-05 0.543949 -0.000172791
323 2 0.806124 37.6987 9.11598 43284.2 43286.4 15716 0.00010072 0.365854 -0.000287716
324 2 4.03062 37.6987 11.395 43284.2 43286.4 15716 3.23178e-05 0.366064 -0.000228718
325 2 0 36.3024 13.674 43283.9 43286.2 15714.8 0.000153205 0.543839 0.000215825
326 2 3.2245 36.3024 15.953 43284.2 43286.3 15716 -0.000628007 0.366164 0.000272223
327 2 1.61225 36.3024 18.232 43284.2 43286.3 15714.5 0.000228697 0.365528 -0.000519064
328 2 2.41837 37.6987 13.674 43283.9 43286.2 15714.8 -0.000492869 0.544479 0.000224684
329 2 0.806124 37.6987 15.953 43284.2 43286.4 15716 -0.000314169 0.366066 4.57501e-05
330 2 4.03062 37.6987 18.232 43284.2 43286.3 15714.5 0.000209148 0.365634 0.000528697
331 2 0 36.3024 20.511 43156.6 43158.9 13508.6 5.52038e-05 0.544094 -0.000474583
332 2 3.2245 36.3024 22.79 29869.7 29871.8 -82132 0.000705205 0.365874 -0.000110873
333 2 1.61225 36.3024 25.069 -205991 -205989 7858.55 0.0019913 0.094076 0.000377334
334 2 2.41837 37.6987 20.511 43156.6 43158.9 13508.6 0.00027582 0.543696 -0.00021289
335 2 0.806124 37.6987 22.79 29869.7 29871.8 -82132 0.000242317 0.365895 -0.000130017
336 2 4.03062 37.6987 25.069 -205991 -205989 7858.55 0.00145654 0.0939872 -0.000418679
337 2 0 39.0949 0 -205991 -205989 7857.4 -0.000364851 0.272091 9.68852e-06
338 2 3.2245 39.0949 2.279 29869.7 29871.8 -82132 7.522e-05 0.365886 0.000291215
339 2 1.61225 39.0949 4.55799 43157 43159.1 13509.7 -5.84294e-05 0.36597 0.000557463
340 2 2.41837 40.4912 0 -205991 -205989 7857.4 0.00050612 0.271804 -3.86331e-05
341 2 0.806124 40.4912 2.279 29869.7 29871.8 -82132 1.26893e-05 0.365973 0.000345354
342 2 4.03062 40.4912 4.55799 43157 43159.1 13509.7 -0.000185904 0.365709 0.000268588
343 2 0 39.0949 6.83699 43283.9 43286.2 15713.4 0.000209907 0.543949 -0.000232236
344 2 3.2245 39.0949 9.11598 43284.2 43286.4 15716 9.632e-05 0.365816 -0.000216837
345 2 1.61225 39.0949 11.395 43284.2 43286.4 15716 0.000174997 0.365758 7.73889e-05
346 2 2.41837 40.4912 6.83699 43283.9 43286.2 15713.4 -0.000236856 0.544134 -0.00012771
347 2 0.806124 40.4912 9.11598 43284.2 43286.4 15716 1.59803e-05 0.365833 -0.000464274
348 2 4.03062 40.4912 11.395 43284.2 43286.4 15716 0.000326802 0.365887 0.000167337
349 2 0 39.0949 13.674 43283.9 43286.2 15714.8 -0.00025535 0.544098 0.000665485
350 2 3.2245 39.0949 15.953 43284.2 43286.4 15716 -0.000616308 0.366329 9.41628e-06
351 2 1.61225 39.0949 18.232 43284.2 43286.3 15714.5 -0.000666725 0.366227 -0.000198722
352 2 2.41837 40.4912 13.674 43283.9 43286.2 15714.8 0.000274958 0.543873 0.000386593
353 2 0.806124 40.4912 15.953 43284.2 43286.4 15716 -0.000142457 0.366008 0.000487281
354 2 4.03062 40.4912 18.232 43284.2 43286.3 15714.5 -0.0005857 0.366212 -0.000271708
355 2 0 39.0949 20.511 43156.6 43158.9 13508.6 0.000301281 0.543884 -0.000586055