ITEM: TIMESTEP
0
ITEM: NUMBER OF ATOMS
3074
ITEM: BOX BOUNDS pp pp pp
0.0000000000000000e+00 3.8693948398131120e+01
0.0000000000000000e+00 4.4679925159782847e+01
0.0000000000000000e+00 6.0000000000000000e+01
ITEM: ATOMS id type x y z v_stress_xx v_stress_yy v_stress_zz v_stress_xy v_stress_xz v_stress_yz
1 2 0 0 0 2596.05 2596.03 -99.025 -2.27283e-07 -0.00342829 -2.26727e-06
2 2 3.2245 0 2.279 -1940.76 -1940.9 5336.46 4.3395e-06 -0.023765 4.94272e-06
3 2 1.61225 0 4.55799 -2804.09 -2804.23 -877.784 9.93e-07 -0.0237665 1.30289e-05
4 2 2.41837 1.39625 0 2596.05 2596.03 -99.025 3.7316e-06 -0.00342597 -2.18214e-06
5 2 0.806124 1.39625 2.279 -1940.76 -1940.9 5336.46 1.26186e-06 -0.0237754 1.0481e-05
6 2 4.03062 1.39625 4.55799 -2804.09 -2804.23 -877.784 -1.62047e-06 -0.0237632 7.6454e-06
7 2 0 0 6.83699 -2812.33 -2812.49 -1020.96 6.74351e-07 -0.0353467 3.17337e-06
8 2 3.2245 0 9.11598 -2812.36 -2812.5 -1021.14 -6.44538e-06 -0.0237891 -3.3767e-06
9 2 1.61225 0 11.395 -2812.36 -2812.5 -1021.14 1.84792e-06 -0.0237772 -3.05982e-07
10 2 2.41837 1.39625 6.83699 -2812.33 -2812.48 -1020.96 -1.00381e-05 -0.0353533 -2.16544e-06
11 2 0.806124 1.39625 9.11598 -2812.36 -2812.5 -1021.14 -1.09157e-06 -0.0237757 -1.28322e-05
12 2 4.03062 1.39625 11.395 -2812.36 -2812.5 -1021.14 1.32513e-05 -0.0237714 1.71222e-05
13 2 0 0 13.674 -2812.34 -2812.49 -1021.06 -1.30142e-06 -0.0353466 1.04186e-05
14 2 3.2245 0 15.953 -2812.36 -2812.5 -1021.14 7.98553e-06 -0.0237681 5.7686e-06
15 2 1.61225 0 18.232 -2812.36 -2812.5 -1021.04 3.30314e-07 -0.0237771 3.1205e-06
16 2 2.41837 1.39625 13.674 -2812.34 -2812.49 -1021.06 1.6248e-05 -0.0353372 2.06176e-05
17 2 0.806124 1.39625 15.953 -2812.36 -2812.5 -1021.14 -1.06036e-06 -0.0237766 2.1418e-05
18 2 4.03062 1.39625 18.232 -2812.36 -2812.5 -1021.04 -3.26899e-05 -0.0237926 -2.08406e-05
19 2 0 0 20.511 -2804.07 -2804.22 -877.709 -7.2356e-07 -0.0353468 -4.15635e-06
20 2 3.2245 0 22.79 -1940.76 -1940.9 5336.46 -1.46255e-05 -0.0237838 -4.70137e-06
21 2 1.61225 0 25.069 1639.46 1639.45 -62.5457 -3.34879e-06 -0.000747313 -1.07231e-06
22 2 2.41837 1.39625 20.511 -2804.07 -2804.22 -877.709 -3.35319e-05 -0.0353621 -1.73057e-05
23 2 0.806124 1.39625 22.79 -1940.76 -1940.9 5336.46 -6.86488e-06 -0.0237797 -8.71348e-06
24 2 4.03062 1.39625 25.069 1639.46 1639.45 -62.5457 -9.27369e-07 -0.000745499 1.73594e-06
25 2 0 2.7925 0 2596.05 2596.03 -99.025 -1.03769e-06 -0.0034284 -2.00552e-06
26 2 3.2245 2.7925 2.279 -1940.76 -1940.9 5336.46 4.39574e-06 -0.0237701 8.35113e-06
27 2 1.61225 2.7925 4.55799 -2804.09 -2804.23 -877.784 -2.78446e-06 -0.023775 1.85306e-05
28 2 2.41837 4.18874 0 2596.05 2596.03 -99.025 3.29809e-06 -0.00342553 -5.19444e-07
29 2 0.806124 4.18874 2.279 -1940.76 -1940.9 5336.46 -1.90777e-08 -0.0237768 1.15394e-05
30 2 4.03062 4.18874 4.55799 -2804.09 -2804.23 -877.784 -9.25931e-06 -0.0237757 5.93487e-06
31 2 0 2.7925 6.83699 -2812.33 -2812.48 -1020.96 3.17631e-06 -0.0353449 -6.97893e-06
32 2 3.2245 2.7925 9.11598 -2812.36 -2812.5 -1021.14 4.7328e-06 -0.0237734 9.46992e-07
33 2 1.61225 2.7925 11.395 -2812.36 -2812.5 -1021.14 1.24274e-05 -0.0237653 1.29905e-05
34 2 2.41837 4.18874 6.83699 -2812.33 -2812.48 -1020.96 -4.33432e-06 -0.0353479 -6.43859e-06
35 2 0.806124 4.18874 9.11598 -2812.36 -2812.5 -1021.14 5.50798e-06 -0.02377 -7.34711e-06
36 2 4.03062 4.18874 11.395 -2812.36 -2812.5 -1021.14 2.24748e-06 -0.0237832 -1.87349e-06
37 2 0 2.7925 13.674 -2812.34 -2812.49 -1021.06 -5.72197e-06 -0.0353503 3.64661e-05
38 2 3.2245 2.7925 15.953 -2812.36 -2812.5 -1021.14 -3.05335e-05 -0.0237944 -5.3313e-06
39 2 1.61225 2.7925 18.232 -2812.36 -2812.5 -1021.04 -3.74093e-05 -0.0237946 -1.32393e-05
40 2 2.41837 4.18874 13.674 -2812.34 -2812.49 -1021.06 -2.16367e-05 -0.0353671 1.3254e-05
41 2 0.806124 4.18874 15.953 -2812.36 -2812.5 -1021.14 -1.97585e-05 -0.0237873 5.03042e-06
42 2 4.03062 4.18874 18.232 -2812.36 -2812.5 -1021.04 9.02821e-06 -0.0237601 2.37909e-05
43 2 0 2.7925 20.511 -2804.07 -2804.22 -877.709 6.87845e-06 -0.0353428 -2.85305e-05
44 2 3.2245 2.7925 22.79 -1940.76 -1940.9 5336.46 1.59443e-06 -0.0237747 -2.71004e-07
45 2 1.61225 2.7925 25.069 1639.46 1639.45 -62.5457 -1.02049e-06 -0.000744889 1.56354e-07
46 2 2.41837 4.18874 20.511 -2804.07 -2804.22 -877.709 1.027e-06 -0.0353358 -1.1631e-05
47 2 0.806124 4.18874 22.79 -1940.76 -1940.9 5336.46 8.08877e-06 -0.0237742 -8.81519e-06
48 2 4.03062 4.18874 25.069 1639.46 1639.45 -62.5457 1.0577e-05 -0.000748026 -2.53819e-06
49 2 0 5.58499 0 2596.05 2596.03 -99.025 -7.85917e-07 -0.00342844 1.90695e-06
50 2 3.2245 5.58499 2.279 -1940.76 -1940.9 5336.46 -2.44632e-06 -0.0237787 4.23593e-06
51 2 1.61225 5.58499 4.55799 -2804.09 -2804.23 -877.784 -7.14425e-06 -0.0237795 2.08019e-06
52 2 2.41837 6.98124 0 2596.05 2596.03 -99.025 4.60478e-07 -0.00342741 2.80254e-06
53 2 0.806124 6.98124 2.279 -1940.76 -1940.9 5336.46 -1.36648e-06 -0.0237785 6.36874e-06
54 2 4.03062 6.98124 4.55799 -2804.09 -2804.23 -877.784 -1.21494e-05 -0.0237692 5.23635e-06
55 2 0 5.58499 6.83699 -2812.33 -2812.48 -1020.96 1.58147e-06 -0.0353456 -1.87858e-05
56 2 3.2245 5.58499 9.11598 -2812.36 -2812.5 -1021.14 1.84822e-05 -0.0237601 4.90236e-06
57 2 1.61225 5.58499 11.395 -2812.36 -2812.5 -1021.14 1.36902e-06 -0.0237822 2.47457e-05
58 2 2.41837 6.98124 6.83699 -2812.33 -2812.48 -1020.96 8.69901e-06 -0.0353211 -3.8557e-06
59 2 0.806124 6.98124 9.11598 -2812.36 -2812.5 -1021.14 4.60978e-06 -0.0237703 1.08086e-05
60 2 4.03062 6.98124 11.395 -2812.36 -2812.5 -1021.14 -3.34708e-05 -0.0238322 -3.32532e-05
61 2 0 5.58499 13.674 -2812.34 -2812.49 -1021.06 2.64558e-06 -0.0353444 2.42271e-05
62 2 3.2245 5.58499 15.953 -2812.36 -2812.5 -1021.14 -4.19513e-05 -0.0237921 9.45559e-06
63 2 1.61225 5.58499 18.232 -2812.36 -2812.5 -1021.04 -9.26748e-06 -0.0237652 -2.84335e-05
64 2 2.41837 6.98124 13.674 -2812.34 -2812.49 -1021.06 -5.98968e-05 -0.0354096 -5.85599e-06
65 2 0.806124 6.98124 15.953 -2812.36 -2812.5 -1021.14 -6.9271e-06 -0.0237754 -3.22611e-05
66 2 4.03062 6.98124 18.232 -2812.36 -2812.5 -1021.04 0.000102485 -0.0237058 5.45037e-05
67 2 0 5.58499 20.511 -2804.07 -2804.22 -877.709 9.06566e-06 -0.0353461 -3.55393e-05
68 2 3.2245 5.58499 22.79 -1940.76 -1940.9 5336.46 4.18281e-05 -0.0237725 -4.32222e-06
69 2 1.61225 5.58499 25.069 1639.46 1639.45 -62.5457 1.4244e-05 -0.000747277 1.98989e-06
70 2 2.41837 6.98124 20.511 -2804.07 -2804.22 -877.709 0.000125046 -0.0352858 3.83126e-06
71 2 0.806124 6.98124 22.79 -1940.76 -1940.9 5336.46 3.49807e-05 -0.0237749 6.94319e-06
72 2 4.03062 6.98124 25.069 1639.46 1639.45 -62.5457 -1.59299e-05 -0.000752301 -5.45373e-06
73 2 0 8.37749 0 2596.05 2596.03 -99.025 7.4824e-08 -0.00342809 5.44438e-06
74 2 3.2245 8.37749 2.279 -1940.76 -1940.9 5336.46 -7.81215e-06 -0.0237862 6.85652e-07
75 2 1.61225 8.37749 4.55799 -2804.09 -2804.23 -877.784 -5.96549e-06 -0.0237722 -7.91054e-06
76 2 2.41837 9.77373 0 2596.05 2596.03 -99.025 -1.14375e-06 -0.00343129 3.98481e-06
77 2 0.806124 9.77373 2.279 -1940.76 -1940.9 5336.46 -1.3203e-06 -0.0237797 2.67224e-06
78 2 4.03062 9.77373 4.55799 -2804.09 -2804.23 -877.784 -6.30789e-06 -0.0237487 1.38158e-05
79 2 0 8.37749 6.83699 -2812.33 -2812.48 -1020.96 -2.63774e-06 -0.0353523 -6.64446e-06
80 2 3.2245 8.37749 9.11598 -2812.36 -2812.5 -1021.14 -2.77578e-06 -0.0237827 -1.14335e-05
81 2 1.61225 8.37749 11.395 -2812.36 -2812.5 -1021.14 -2.99446e-05 -0.0238242 -7.58058e-07
82 2 2.41837 9.77373 6.83699 -2812.33 -2812.48 -1020.96 9.31698e-06 -0.0353036 8.23017e-06
83 2 0.806124 9.77373 9.11598 -2812.36 -2812.5 -1021.14 -4.82773e-06 -0.0237831 1.42007e-05
84 2 4.03062 9.77373 11.395 -2812.36 -2812.5 -1021.14 -3.94403e-05 -0.023833 -1.81666e-05
85 2 0 8.37749 13.674 -2812.34 -2812.49 -1021.06 1.48764e-05 -0.0353301 -3.07091e-05
86 2 3.2245 8.37749 15.953 -2812.36 -2812.5 -1021.14 8.63375e-05 -0.02368 7.02661e-05
87 2 1.61225 8.37749 18.232 -2812.36 -2812.49 -1021.04 0.000137075 -0.0236614 9.89279e-06
88 2 2.41837 9.77373 13.674 -2812.34 -2812.49 -1021.06 -8.4424e-06 -0.0353464 8.2018e-07
89 2 0.806124 9.77373 15.953 -2812.36 -2812.5 -1021.14 4.82895e-05 -0.023714 -2.80243e-05
90 2 4.03062 9.77373 18.232 -2812.36 -2812.5 -1021.04 -2.88869e-05 -0.0238245 -4.93143e-05
91 2 0 8.37749 20.511 -2804.07 -2804.22 -877.708 -4.05506e-05 -0.0353702 2.86886e-05
92 2 3.2245 8.37749 22.79 -1940.76 -1940.9 5336.46 -1.85067e-05 -0.0237975 -1.83148e-05
93 2 1.61225 8.37749 25.069 1639.46 1639.45 -62.5457 5.52373e-06 -0.000757055 -6.25084e-07
94 2 2.41837 9.77373 20.511 -2804.07 -2804.22 -877.709 3.28755e-05 -0.0353676 -2.87608e-05
95 2 0.806124 9.77373 22.79 -1940.76 -1940.9 5336.46 -6.0247e-06 -0.0237959 5.2089e-06
96 2 4.03062 9.77373 25.069 1639.46 1639.45 -62.5457 -5.06921e-05 -0.000732271 1.19683e-05
97 2 0 11.17 0 2596.05 2596.03 -99.025 5.36071e-07 -0.00342732 4.10996e-06
98 2 3.2245 11.17 2.279 -1940.76 -1940.9 5336.46 -5.46497e-06 -0.0237894 2.25008e-06
99 2 1.61225 11.17 4.55799 -2804.09 -2804.23 -877.784 6.03265e-07 -0.023758 7.21698e-06
100 2 2.41837 12.5662 0 2596.05 2596.03 -99.025 -2.82576e-07 -0.00343474 5.74185e-07
101 2 0.806124 12.5662 2.279 -1940.76 -1940.9 5336.46 -3.04372e-08 -0.0237798 2.2377e-06
102 2 4.03062 12.5662 4.55799 -2804.09 -2804.23 -877.784 3.80218e-06 -0.0237395 2.52552e-05
103 2 0 11.17 6.83699 -2812.33 -2812.48 -1020.96 -3.56085e-06 -0.0353582 2.53454e-05
104 2 3.2245 11.17 9.11598 -2812.36 -2812.5 -1021.14 -3.82271e-05 -0.0238334 -2.7715e-05
105 2 1.61225 11.17 11.395 -2812.36 -2812.5 -1021.14 -4.03474e-05 -0.0238405 -3.56747e-05
106 2 2.41837 12.5662 6.83699 -2812.33 -2812.48 -1020.96 -1.57365e-06 -0.0353231 2.3192e-05
107 2 0.806124 12.5662 9.11598 -2812.36 -2812.5 -1021.14 -1.02985e-05 -0.0237974 4.5929e-06
108 2 4.03062 12.5662 11.395 -2812.36 -2812.5 -1021.13 1.80627e-05 -0.023695 5.35733e-05
109 2 0 11.17 13.674 -2812.34 -2812.49 -1021.06 7.16373e-06 -0.0353358 -6.80707e-05
110 2 3.2245 11.17 15.953 -2812.36 -2812.5 -1021.14 0.000108847 -0.0236598 3.96672e-05
111 2 1.61225 11.17 18.232 -2812.36 -2812.5 -1021.04 0.000133917 -0.0236798 3.96491e-05
112 2 2.41837 12.5662 13.674 -2812.34 -2812.49 -1021.06 9.52302e-05 -0.0351591 3.25955e-05
113 2 0.806124 12.5662 15.953 -2812.36 -2812.5 -1021.13 7.5904e-05 -0.023664 4.5141e-05
114 2 4.03062 12.5662 18.232 -2812.36 -2812.5 -1021.04 -0.000245331 -0.024072 -0.000179852
115 2 0 11.17 20.511 -2804.07 -2804.22 -877.709 -3.56393e-05 -0.0353599 4.28013e-05
116 2 3.2245 11.17 22.79 -1940.76 -1940.9 5336.46 -0.000179212 -0.0238374 -2.98821e-05
117 2 1.61225 11.17 25.069 1639.46 1639.45 -62.5457 -3.26409e-05 -0.000754954 -1.95182e-06
118 2 2.41837 12.5662 20.511 -2804.07 -2804.22 -877.71 -0.00018477 -0.0355443 -7.44105e-05
119 2 0.806124 12.5662 22.79 -1940.76 -1940.9 5336.46 -1.60901e-05 -0.0237888 -4.64355e-06
120 2 4.03062 12.5662 25.069 1639.46 1639.45 -62.5456 3.15925e-05 -0.000686498 3.6094e-05
121 2 0 13.9625 0 2596.05 2596.03 -99.025 2.73199e-07 -0.00342661 -1.75991e-06
122 2 3.2245 13.9625 2.279 -1940.76 -1940.9 5336.46 2.01143e-06 -0.0237868 4.91889e-06
123 2 1.61225 13.9625 4.55799 -2804.09 -2804.23 -877.784 7.16699e-06 -0.0237487 3.08104e-05
124 2 2.41837 15.3587 0 2596.05 2596.03 -99.025 1e-06 -0.00343576 -4.40224e-06
125 2 0.806124 15.3587 2.279 -1940.76 -1940.9 5336.46 8.75341e-07 -0.0237788 1.45351e-06
126 2 4.03062 15.3587 4.55799 -2804.09 -2804.23 -877.784 1.10865e-05 -0.0237504 2.79443e-05
127 2 0 13.9625 6.83699 -2812.33 -2812.48 -1020.96 -6.21007e-07 -0.0353549 4.87648e-05
128 2 3.2245 13.9625 9.11598 -2812.36 -2812.5 -1021.14 -5.13579e-05 -0.0238751 -2.09256e-05
129 2 1.61225 13.9625 11.395 -2812.36 -2812.5 -1021.14 -2.05997e-05 -0.0237985 -4.3687e-05
130 2 2.41837 15.3587 6.83699 -2812.33 -2812.48 -1020.96 -7.60686e-06 -0.0353679 3.1022e-05
131 2 0.806124 15.3587 9.11598 -2812.36 -2812.5 -1021.14 -8.51228e-06 -0.0238054 -1.99907e-08
132 2 4.03062 15.3587 11.395 -2812.36 -2812.5 -1021.13 6.07645e-05 -0.0235289 8.75406e-05
133 2 0 13.9625 13.674 -2812.34 -2812.49 -1021.06 -2.42535e-05 -0.035392 -3.67102e-05
134 2 3.2245 13.9625 15.953 -2812.36 -2812.5 -1021.14 1.33299e-05 -0.0237834 -1.85907e-05
135 2 1.61225 13.9625 18.232 -2812.36 -2812.5 -1021.04 -2.09254e-05 -0.0238686 4.37805e-06
136 2 2.41837 15.3587 13.674 -2812.34 -2812.49 -1021.06 0.000114477 -0.0350345 4.27426e-05
137 2 0.806124 15.3587 15.953 -2812.36 -2812.5 -1021.13 4.17328e-05 -0.023703 7.65933e-05
138 2 4.03062 15.3587 18.232 -2812.36 -2812.49 -1021.04 -0.00054542 -0.0245462 -0.000329664
139 2 0 13.9625 20.511 -2804.07 -2804.22 -877.71 1.84772e-05 -0.0353227 -6.50814e-06
140 2 3.2245 13.9625 22.79 -1940.76 -1940.89 5336.46 -0.000236197 -0.0236785 5.23667e-05
141 2 1.61225 13.9625 25.069 1639.46 1639.45 -62.5457 -4.55584e-05 -0.000731142 1.36695e-06
142 2 2.41837 15.3587 20.511 -2804.07 -2804.22 -877.709 -0.000366398 -0.0357741 -0.000102238
143 2 0.806124 15.3587 22.79 -1940.76 -1940.9 5336.46 5.33515e-06 -0.0237763 2.79566e-06
144 2 4.03062 15.3587 25.069 1639.47 1639.45 -62.5457 0.000132626 -0.000700014 2.33245e-05
145 2 0 16.755 0 2596.05 2596.03 -99.025 -1.18455e-07 -0.00342641 -5.59857e-06
146 2 3.2245 16.755 2.279 -1940.76 -1940.9 5336.46 5.45491e-06 -0.0237811 3.76992e-06
147 2 1.61225 16.755 4.55799 -2804.09 -2804.23 -877.784 7.92463e-06 -0.0237483 3.33399e-05
148 2 2.41837 18.1512 0 2596.05 2596.03 -99.025 9.01796e-07 -0.00343503 -4.73432e-06
149 2 0.806124 18.1512 2.279 -1940.76 -1940.9 5336.46 4.99617e-07 -0.0237778 3.83927e-09
150 2 4.03062 18.1512 4.55799 -2804.09 -2804.23 -877.784 9.21795e-06 -0.0237658 1.73707e-05
151 2 0 16.755 6.83699 -2812.33 -2812.48 -1020.96 1.26147e-06 -0.0353444 4.40867e-05
152 2 3.2245 16.755 9.11598 -2812.36 -2812.5 -1021.14 -3.36881e-05 -0.0238798 -4.83635e-07
153 2 1.61225 16.755 11.395 -2812.36 -2812.5 -1021.13 3.38269e-06 -0.0237123 -2.2375e-05
154 2 2.41837 18.1512 6.83699 -2812.33 -2812.48 -1020.96 -4.61015e-06 -0.0354057 2.22251e-05
155 2 0.806124 18.1512 9.11598 -2812.36 -2812.5 -1021.14 -3.34861e-06 -0.0238079 1.0721e-06
156 2 4.03062 18.1512 11.395 -2812.36 -2812.5 -1021.13 4.16916e-05 -0.0234595 5.30233e-05
157 2 0 16.755 13.674 -2812.34 -2812.49 -1021.06 -3.84794e-05 -0.0354634 1.55241e-05
158 2 3.2245 16.755 15.953 -2812.36 -2812.5 -1021.14 -2.12121e-05 -0.0238728 -2.72282e-05
159 2 1.61225 16.755 18.232 -2812.36 -2812.5 -1021.04 -6.44786e-05 -0.0239907 -1.70107e-05
160 2 2.41837 18.1512 13.674 -2812.34 -2812.49 -1021.06 5.95495e-05 -0.0350289 2.54851e-05
161 2 0.806124 18.1512 15.953 -2812.36 -2812.5 -1021.14 1.16851e-05 -0.0237548 4.21232e-05
162 2 4.03062 18.1512 18.232 -2812.36 -2812.49 -1021.04 -0.000435198 -0.0245904 -0.000225758
163 2 0 16.755 20.511 -2804.07 -2804.22 -877.711 1.30503e-05 -0.0353275 -7.98945e-06
164 2 3.2245 16.755 22.79 -1940.75 -1940.89 5336.46 0.000106356 -0.0231468 0.00015152
165 2 1.61225 16.755 25.069 1639.46 1639.45 -62.5457 -2.4257e-05 -0.000697947 3.96593e-06
166 2 2.41837 18.1512 20.511 -2804.07 -2804.22 -877.708 -0.000288693 -0.0358771 -7.05934e-05
167 2 0.806124 18.1512 22.79 -1940.76 -1940.9 5336.46 -7.34038e-07 -0.0237791 -7.05128e-07
168 2 4.03062 18.1512 25.069 1639.47 1639.45 -62.5457 7.91353e-05 -0.000757559 4.82945e-06
169 2 0 19.5475 0 2596.05 2596.03 -99.025 -1.6256e-07 -0.00342657 -2.59239e-06
170 2 3.2245 19.5475 2.279 -1940.76 -1940.9 5336.46 2.06237e-06 -0.0237771 7.4093e-07
171 2 1.61225 19.5475 4.55799 -2804.09 -2804.23 -877.784 2.29312e-06 -0.0237504 1.17508e-05
172 2 2.41837 20.9437 0 2596.05 2596.03 -99.025 -2.96975e-07 -0.00343462 5.14941e-07
173 2 0.806124 20.9437 2.279 -1940.76 -1940.9 5336.46 -4.33329e-07 -0.0237777 -2.97207e-07
174 2 4.03062 20.9437 4.55799 -2804.09 -2804.23 -877.784 -5.86193e-07 -0.0237705 -1.28952e-06
175 2 0 19.5475 6.83699 -2812.33 -2812.48 -1020.96 7.34527e-07 -0.0353357 1.48515e-05
176 2 3.2245 19.5475 9.11598 -2812.36 -2812.5 -1021.14 -1.02987e-05 -0.0238676 2.30563e-06
177 2 1.61225 19.5475 11.395 -2812.36 -2812.5 -1021.13 2.39829e-06 -0.0236504 -6.18572e-06
178 2 2.41837 20.9437 6.83699 -2812.33 -2812.48 -1020.96 1.32395e-06 -0.0354168 -5.51197e-07
179 2 0.806124 20.9437 9.11598 -2812.36 -2812.5 -1021.14 2.45042e-06 -0.0238082 3.10891e-07
180 2 4.03062 20.9437 11.395 -2812.36 -2812.5 -1021.13 -7.70799e-06 -0.0234389 -8.98953e-06
181 2 0 19.5475 13.674 -2812.33 -2812.49 -1021.06 -2.18053e-05 -0.035497 1.3063e-05
182 2 3.2245 19.5475 15.953 -2812.36 -2812.5 -1021.14 -8.40212e-06 -0.023944 -8.80312e-06
183 2 1.61225 19.5475 18.232 -2812.36 -2812.5 -1021.04 -1.71305e-05 -0.0240221 -4.50117e-06
184 2 2.41837 20.9437 13.674 -2812.34 -2812.49 -1021.06 -7.06542e-06 -0.035031 -2.44767e-06
185 2 0.806124 20.9437 15.953 -2812.36 -2812.5 -1021.14 -4.05629e-06 -0.0237578 -2.2537e-06
186 2 4.03062 20.9437 18.232 -2812.36 -2812.49 -1021.04 -2.74825e-05 -0.0245589 -2.11165e-05
187 2 0 19.5475 20.511 -2804.07 -2804.22 -877.711 5.38891e-06 -0.0353301 -2.30748e-06
188 2 3.2245 19.5475 22.79 -1940.75 -1940.89 5336.46 2.90239e-05 -0.0227681 4.9386e-05
189 2 1.61225 19.5475 25.069 1639.46 1639.45 -62.5457 -5.55661e-06 -0.000676456 1.16758e-06
190 2 2.41837 20.9437 20.511 -2804.07 -2804.22 -877.707 2.12427e-05 -0.0358931 -1.5363e-06
191 2 0.806124 20.9437 22.79 -1940.76 -1940.9 5336.46 2.19435e-06 -0.0237793 1.92514e-07
192 2 4.03062 20.9437 25.069 1639.47 1639.45 -62.5458 -1.96185e-05 -0.000772547 2.55136e-06
193 2 0 22.34 0 2596.05 2596.03 -99.025 4.37129e-08 -0.00342664 3.60451e-06
194 2 3.2245 22.34 2.279 -1940.76 -1940.9 5336.46 -3.66555e-06 -0.0237775 -2.21e-06
195 2 1.61225 22.34 4.55799 -2804.09 -2804.23 -877.784 -5.06116e-06 -0.0237495 -1.79808e-05
196 2 2.41837 23.7362 0 2596.05 2596.03 -99.025 -1.36437e-06 -0.00343531 5.19388e-06
197 2 0.806124 23.7362 2.279 -1940.76 -1940.9 5336.46 -8.7444e-07 -0.0237786 -1.01599e-06
198 2 4.03062 23.7362 4.55799 -2804.09 -2804.23 -877.784 -9.65378e-06 -0.0237603 -2.02802e-05
199 2 0 22.34 6.83699 -2812.33 -2812.48 -1020.96 -4.5985e-07 -0.0353334 -2.26255e-05
200 2 3.2245 22.34 9.11598 -2812.36 -2812.5 -1021.14 1.13722e-05 -0.0238756 -6.24341e-06
201 2 1.61225 22.34 11.395 -2812.36 -2812.5 -1021.13 -8.93843e-06 -0.0236663 4.72488e-07
202 2 2.41837 23.7362 6.83699 -2812.33 -2812.48 -1020.96 7.36806e-06 -0.035397 -2.29407e-05
203 2 0.806124 23.7362 9.11598 -2812.36 -2812.5 -1021.14 8.28911e-06 -0.0238063 -6.89803e-08
204 2 4.03062 23.7362 11.395 -2812.36 -2812.5 -1021.13 -6.02415e-05 -0.0234337 -7.61157e-05
205 2 0 22.34 13.674 -2812.33 -2812.49 -1021.06 6.08043e-06 -0.0355009 -1.60228e-05
206 2 3.2245 22.34 15.953 -2812.36 -2812.5 -1021.14 2.24296e-05 -0.0239098 2.01664e-05
207 2 1.61225 22.34 18.232 -2812.36 -2812.5 -1021.04 4.19562e-05 -0.0239911 1.70934e-05
208 2 2.41837 23.7362 13.674 -2812.34 -2812.49 -1021.06 -8.21869e-05 -0.0349924 -3.80224e-05
209 2 0.806124 23.7362 15.953 -2812.36 -2812.5 -1021.14 -3.32103e-05 -0.0237157 -5.01973e-05
210 2 4.03062 23.7362 18.232 -2812.36 -2812.49 -1021.04 0.000514788 -0.0248929 0.00026786
211 2 0 22.34 20.511 -2804.07 -2804.22 -877.711 -2.15879e-06 -0.0353265 3.93045e-06
212 2 3.2245 22.34 22.79 -1940.75 -1940.89 5336.46 -0.000310796 -0.0227737 -0.000141245
213 2 1.61225 22.34 25.069 1639.46 1639.45 -62.5457 7.53374e-06 -0.000680097 -4.47056e-06
214 2 2.41837 23.7362 20.511 -2804.07 -2804.22 -877.708 0.000338788 -0.0359099 8.64644e-05
215 2 0.806124 23.7362 22.79 -1940.76 -1940.9 5336.46 -3.5025e-06 -0.0237775 -1.54918e-06
216 2 4.03062 23.7362 25.069 1639.47 1639.45 -62.5457 -0.000138745 -0.000723202 -6.64655e-06
217 2 0 25.1325 0 2596.05 2596.03 -99.025 1.82205e-07 -0.00342647 5.27279e-06
218 2 3.2245 25.1325 2.279 -1940.76 -1940.9 5336.46 -5.77771e-06 -0.0237818 -5.05662e-06
219 2 1.61225 25.1325 4.55799 -2804.09 -2804.23 -877.784 -8.41111e-06 -0.0237469 -3.78248e-05
220 2 2.41837 26.5287 0 2596.05 2596.03 -99.025 -1.00075e-06 -0.00343569 3.83282e-06
221 2 0.806124 26.5287 2.279 -1940.76 -1940.9 5336.46 -8.42325e-08 -0.0237797 -2.68962e-06
222 2 4.03062 26.5287 4.55799 -2804.09 -2804.23 -877.784 -1.01497e-05 -0.0237409 -3.10708e-05
223 2 0 25.1325 6.83699 -2812.33 -2812.48 -1020.96 -1.41549e-06 -0.0353388 -4.91858e-05
224 2 3.2245 25.1325 9.11598 -2812.36 -2812.5 -1021.14 4.14863e-05 -0.0238946 6.72507e-06
225 2 1.61225 25.1325 11.395 -2812.36 -2812.5 -1021.14 4.37377e-06 -0.0237507 2.64551e-05
226 2 2.41837 26.5287 6.83699 -2812.33 -2812.48 -1020.96 8.28529e-06 -0.0353526 -3.15917e-05
227 2 0.806124 26.5287 9.11598 -2812.36 -2812.5 -1021.14 1.05628e-05 -0.0237982 5.29952e-07
228 2 4.03062 26.5287 11.395 -2812.36 -2812.5 -1021.13 -7.02885e-05 -0.0235342 -0.000102098
229 2 0 25.1325 13.674 -2812.34 -2812.49 -1021.06 3.24095e-05 -0.0354809 -2.69953e-06
230 2 3.2245 25.1325 15.953 -2812.36 -2812.5 -1021.14 1.72538e-05 -0.0238275 2.27295e-05
231 2 1.61225 25.1325 18.232 -2812.36 -2812.5 -1021.04 5.55208e-05 -0.0239224 1.93697e-05
232 2 2.41837 26.5287 13.674 -2812.34 -2812.49 -1021.06 -0.000139116 -0.0350128 -6.16329e-05
233 2 0.806124 26.5287 15.953 -2812.36 -2812.5 -1021.13 -7.59477e-05 -0.0236687 -8.41516e-05
234 2 4.03062 26.5287 18.232 -2812.36 -2812.5 -1021.04 0.000542222 -0.0245233 0.00033009
235 2 0 25.1325 20.511 -2804.07 -2804.22 -877.711 -1.94197e-05 -0.0353108 1.1199e-05
236 2 3.2245 25.1325 22.79 -1940.76 -1940.89 5336.46 -2.17531e-05 -0.0232967 -0.000165875
237 2 1.61225 25.1325 25.069 1639.46 1639.45 -62.5457 3.70596e-05 -0.000710072 -5.15225e-06
238 2 2.41837 26.5287 20.511 -2804.07 -2804.22 -877.71 0.000312455 -0.0356905 0.000101991
239 2 0.806124 26.5287 22.79 -1940.76 -1940.9 5336.46 -1.02225e-05 -0.0237731 -5.23243e-06
240 2 4.03062 26.5287 25.069 1639.47 1639.45 -62.5456 -0.000141697 -0.00065061 -4.14182e-05
241 2 0 27.925 0 2596.05 2596.03 -99.025 -1.8975e-08 -0.0034264 3.34503e-07
242 2 3.2245 27.925 2.279 -1940.76 -1940.9 5336.46 -2.5912e-07 -0.0237869 -4.78068e-06
243 2 1.61225 27.925 4.55799 -2804.09 -2804.23 -877.784 -4.67615e-06 -0.02375 -2.96605e-05
244 2 2.41837 29.3212 0 2596.05 2596.03 -99.025 7.36033e-07 -0.00343376 -1.40476e-06
245 2 0.806124 29.3212 2.279 -1940.76 -1940.9 5336.46 1.31414e-06 -0.0237798 -2.38096e-06
246 2 4.03062 29.3212 4.55799 -2804.09 -2804.23 -877.784 -2.2711e-06 -0.0237323 -2.62883e-05
247 2 0 27.925 6.83699 -2812.33 -2812.48 -1020.96 -7.05465e-07 -0.0353497 -4.62261e-05
248 2 3.2245 27.925 9.11598 -2812.36 -2812.5 -1021.14 5.61315e-05 -0.0238786 2.99583e-05
249 2 1.61225 27.925 11.395 -2812.36 -2812.5 -1021.14 3.44631e-05 -0.0238291 5.16581e-05
250 2 2.41837 29.3212 6.83699 -2812.33 -2812.48 -1020.96 -2.23758e-06 -0.0353103 -2.43498e-05
251 2 0.806124 29.3212 9.11598 -2812.36 -2812.5 -1021.14 5.43941e-06 -0.0237844 -6.40636e-06
252 2 4.03062 29.3212 11.395 -2812.36 -2812.5 -1021.13 3.16485e-06 -0.0237559 -2.92169e-05
253 2 0 27.925 13.674 -2812.34 -2812.49 -1021.06 3.44901e-05 -0.0354227 5.02212e-05
254 2 3.2245 27.925 15.953 -2812.36 -2812.5 -1021.14 -4.70804e-05 -0.0237247 -2.00619e-06
255 2 1.61225 27.925 18.232 -2812.36 -2812.5 -1021.04 -4.4376e-05 -0.0237776 -2.61563e-05
256 2 2.41837 29.3212 13.674 -2812.34 -2812.49 -1021.06 -7.75608e-05 -0.0352068 -2.69222e-05
257 2 0.806124 29.3212 15.953 -2812.36 -2812.5 -1021.13 -6.33375e-05 -0.0236981 -3.47763e-05
258 2 4.03062 29.3212 18.232 -2812.36 -2812.5 -1021.04 0.000130479 -0.023928 0.000102424
259 2 0 27.925 20.511 -2804.07 -2804.22 -877.71 -4.87585e-05 -0.0352876 -1.50269e-06
260 2 3.2245 27.925 22.79 -1940.76 -1940.9 5336.46 0.000386073 -0.0238325 8.35692e-06
261 2 1.61225 27.925 25.069 1639.46 1639.45 -62.5457 4.70525e-05 -0.000744307 9.9361e-07
262 2 2.41837 29.3212 20.511 -2804.07 -2804.22 -877.71 9.66909e-05 -0.0354633 5.18427e-05
263 2 0.806124 29.3212 22.79 -1940.76 -1940.9 5336.46 5.07313e-06 -0.0237864 4.6545e-06
264 2 4.03062 29.3212 25.069 1639.46 1639.45 -62.5456 4.65837e-05 -0.000689146 -3.71701e-05
265 2 0 30.7174 0 2596.05 2596.03 -99.025 -4.38695e-07 -0.00342684 -4.93216e-06
266 2 3.2245 30.7174 2.279 -1940.76 -1940.9 5336.46 7.47701e-06 -0.0237882 -4.52727e-07
267 2 1.61225 30.7174 4.55799 -2804.09 -2804.23 -877.784 2.6938e-06 -0.023763 -1.03159e-06
268 2 2.41837 32.1137 0 2596.05 2596.03 -99.025 1.38179e-06 -0.00342978 -4.02953e-06
269 2 0.806124 32.1137 2.279 -1940.76 -1940.9 5336.46 1.47982e-06 -0.0237786 -1.65918e-06
270 2 4.03062 32.1137 4.55799 -2804.09 -2804.23 -877.784 6.95678e-06 -0.0237498 -1.0445e-05
271 2 0 30.7174 6.83699 -2812.33 -2812.48 -1020.96 2.37543e-06 -0.035358 -1.6055e-05
272 2 3.2245 30.7174 9.11598 -2812.36 -2812.5 -1021.14 3.13302e-05 -0.0238235 2.59478e-05
273 2 1.61225 30.7174 11.395 -2812.36 -2812.5 -1021.14 4.08777e-05 -0.0238412 3.51565e-05
274 2 2.41837 32.1137 6.83699 -2812.33 -2812.48 -1020.96 -1.36147e-05 -0.0353033 -8.44699e-06
275 2 0.806124 32.1137 9.11598 -2812.36 -2812.5 -1021.14 -3.66943e-06 -0.0237721 -1.75008e-05
276 2 4.03062 32.1137 11.395 -2812.36 -2812.5 -1021.14 5.88844e-05 -0.0238694 4.43984e-05
277 2 0 30.7174 13.674 -2812.34 -2812.49 -1021.06 7.25279e-06 -0.0353575 5.97603e-05
278 2 3.2245 30.7174 15.953 -2812.36 -2812.5 -1021.14 -0.00017791 -0.0235844 -9.07635e-05
279 2 1.61225 30.7174 18.232 -2812.36 -2812.49 -1021.04 -0.000191207 -0.0236271 -7.10027e-05
280 2 2.41837 32.1137 13.674 -2812.34 -2812.49 -1021.06 4.46563e-05 -0.0353942 2.20498e-05
281 2 0.806124 32.1137 15.953 -2812.36 -2812.5 -1021.14 2.16385e-06 -0.0237687 3.86189e-05
282 2 4.03062 32.1137 18.232 -2812.36 -2812.5 -1021.04 -6.89775e-05 -0.0237439 -5.87482e-06
283 2 0 30.7174 20.511 -2804.07 -2804.22 -877.709 1.55728e-06 -0.0353283 -4.40158e-05
284 2 3.2245 30.7174 22.79 -1940.76 -1940.9 5336.46 9.57772e-05 -0.0238237 2.65528e-05
285 2 1.61225 30.7174 25.069 1639.46 1639.45 -62.5457 1.53275e-05 -0.000759145 4.74784e-06
286 2 2.41837 32.1137 20.511 -2804.07 -2804.22 -877.709 -0.000123283 -0.0353114 -5.2657e-06
287 2 0.806124 32.1137 22.79 -1940.76 -1940.9 5336.46 -2.89927e-05 -0.0237777 -1.02728e-05
288 2 4.03062 32.1137 25.069 1639.46 1639.45 -62.5457 5.79148e-05 -0.000748089 -7.31637e-07
289 2 0 33.5099 0 2596.05 2596.03 -99.025 -4.39203e-07 -0.00342766 -4.54545e-06
290 2 3.2245 33.5099 2.279 -1940.76 -1940.9 5336.46 7.55996e-06 -0.0237843 8.30797e-07
291 2 1.61225 33.5099 4.55799 -2804.09 -2804.23 -877.784 6.70697e-06 -0.0237766 1.23789e-05
292 2 2.41837 34.9062 0 2596.05 2596.03 -99.025 -7.92817e-07 -0.00342653 -1.96116e-06
293 2 0.806124 34.9062 2.279 -1940.76 -1940.9 5336.46 1.42373e-07 -0.023777 -5.29042e-06
294 2 4.03062 34.9062 4.55799 -2804.09 -2804.23 -877.784 1.03616e-05 -0.0237748 -7.05848e-07
295 2 0 33.5099 6.83699 -2812.33 -2812.48 -1020.96 3.98751e-06 -0.0353565 1.24386e-05
296 2 3.2245 33.5099 9.11598 -2812.36 -2812.5 -1021.14 -9.58253e-06 -0.0237708 -2.02406e-07
297 2 1.61225 33.5099 11.395 -2812.36 -2812.5 -1021.14 1.61573e-05 -0.0238056 -9.96501e-06
298 2 2.41837 34.9062 6.83699 -2812.33 -2812.48 -1020.96 -7.9465e-06 -0.0353302 5.49064e-06
299 2 0.806124 34.9062 9.11598 -2812.36 -2812.5 -1021.14 -5.84836e-06 -0.02377 -1.17321e-05
300 2 4.03062 34.9062 11.395 -2812.36 -2812.5 -1021.14 2.92445e-05 -0.0238242 2.79825e-05
301 2 0 33.5099 13.674 -2812.34 -2812.49 -1021.06 -1.4558e-05 -0.0353293 1.28458e-05
302 2 3.2245 33.5099 15.953 -2812.36 -2812.5 -1021.14 -4.9206e-05 -0.0237092 -5.43867e-05
303 2 1.61225 33.5099 18.232 -2812.36 -2812.49 -1021.04 -7.56269e-05 -0.0237019 1.75641e-06
304 2 2.41837 34.9062 13.674 -2812.34 -2812.49 -1021.06 5.95289e-05 -0.0354045 9.44198e-06
305 2 0.806124 34.9062 15.953 -2812.36 -2812.5 -1021.14 2.06306e-05 -0.0237868 2.82993e-05
306 2 4.03062 34.9062 18.232 -2812.36 -2812.49 -1021.04 -0.000133813 -0.0236759 -8.24939e-05
307 2 0 33.5099 20.511 -2804.07 -2804.22 -877.708 5.79628e-05 -0.0353738 -4.77465e-06
308 2 3.2245 33.5099 22.79 -1940.76 -1940.9 5336.46 -2.0021e-05 -0.0237892 1.26975e-05
309 2 1.61225 33.5099 25.069 1639.46 1639.45 -62.5457 -1.6216e-05 -0.000752985 -2.44354e-08
310 2 2.41837 34.9062 20.511 -2804.07 -2804.22 -877.709 -0.000111303 -0.0352831 -1.1867e-05
311 2 0.806124 34.9062 22.79 -1940.76 -1940.9 5336.46 -1.37294e-05 -0.023773 -4.07251e-06
312 2 4.03062 34.9062 25.069 1639.46 1639.45 -62.5457 -4.97245e-06 -0.000754817 7.63607e-06
313 2 0 36.3024 0 2596.05 2596.03 -99.025 2.76911e-07 -0.00342829 -2.35309e-07
314 2 3.2245 36.3024 2.279 -1940.76 -1940.9 5336.46 3.04474e-07 -0.0237775 -4.33896e-06
315 2 1.61225 36.3024 4.55799 -2804.09 -2804.23 -877.784 4.61726e-06 -0.0237794 -3.14005e-06
316 2 2.41837 37.6987 0 2596.05 2596.03 -99.025 -3.61049e-06 -0.00342585 1.23385e-06
317 2 0.806124 37.6987 2.279 -1940.76 -1940.9 5336.46 -1.15629e-06 -0.0237757 -1.11281e-05
318 2 4.03062 37.6987 4.55799 -2804.09 -2804.23 -877.784 6.45106e-06 -0.0237781 -4.91436e-06
319 2 0 36.3024 6.83699 -2812.33 -2812.48 -1020.96 9.59599e-07 -0.0353489 1.51127e-05
320 2 3.2245 36.3024 9.11598 -2812.36 -2812.5 -1021.14 -2.13025e-05 -0.0237564 -1.14097e-05
321 2 1.61225 36.3024 11.395 -2812.36 -2812.5 -1021.14 -1.01217e-05 -0.023769 -3.25607e-05
322 2 2.41837 37.6987 6.83699 -2812.33 -2812.48 -1020.96 7.33878e-06 -0.0353518 7.66444e-06
323 2 0.806124 37.6987 9.11598 -2812.36 -2812.5 -1021.14 5.38166e-07 -0.023775 8.775e-06
324 2 4.03062 37.6987 11.395 -2812.36 -2812.5 -1021.14 -1.17246e-05 -0.0237684 -1.2582e-05
325 2 0 36.3024 13.674 -2812.34 -2812.49 -1021.06 -1.19815e-05 -0.0353351 -3.21028e-05
326 2 3.2245 36.3024 15.953 -2812.36 -2812.5 -1021.14 6.90586e-05 -0.0238124 1.53574e-05
327 2 1.61225 36.3024 18.232 -2812.36 -2812.5 -1021.04 4.20179e-05 -0.0237893 3.97847e-05
328 2 2.41837 37.6987 13.674 -2812.34 -2812.49 -1021.06 5.0453e-06 -0.0353512 -2.27818e-05
329 2 0.806124 37.6987 15.953 -2812.36 -2812.5 -1021.14 3.33797e-06 -0.0237776 -1.11202e-05
330 2 4.03062 37.6987 18.232 -2812.36 -2812.5 -1021.04 4.10873e-05 -0.0237896 8.92443e-06
331 2 0 36.3024 20.511 -2804.07 -2804.22 -877.709 1.32084e-05 -0.0353576 3.74365e-05
332 2 3.2245 36.3024 22.79 -1940.76 -1940.9 5336.46 -5.32942e-05 -0.0237641 -4.13214e-06
333 2 1.61225 36.3024 25.069 1639.46 1639.45 -62.5457 -7.34012e-06 -0.000744964 -3.14244e-06
334 2 2.41837 37.6987 20.511 -2804.07 -2804.22 -877.709 3.32404e-05 -0.0353542 2.50446e-05