ITEM: TIMESTEP
0
ITEM: NUMBER OF ATOMS
3074
ITEM: BOX BOUNDS pp pp pp
0.0000000000000000e+00 3.8693948398131120e+01
0.0000000000000000e+00 4.4679925159782847e+01
0.0000000000000000e+00 6.0000000000000000e+01
ITEM: ATOMS id type x y z v_stress_xx v_stress_yy v_stress_zz v_stress_xy v_stress_xz v_stress_yz
1 2 0 0 0 2596.05 2596.03 -99.025 -2.16302e-08 -0.00342801 -1.72442e-06
2 2 3.2245 0 2.279 -1940.76 -1940.9 5336.46 2.45686e-06 -0.0237689 2.47476e-06
3 2 1.61225 0 4.55799 -2804.09 -2804.23 -877.784 1.07556e-06 -0.0237669 6.53835e-06
4 2 2.41837 1.39625 0 2596.05 2596.03 -99.025 1.75796e-06 -0.00342647 -1.95871e-06
5 2 0.806124 1.39625 2.279 -1940.76 -1940.9 5336.46 1.31511e-06 -0.0237745 4.55039e-06
6 2 4.03062 1.39625 4.55799 -2804.09 -2804.23 -877.784 3.68444e-07 -0.0237673 2.15591e-06
7 2 0 0 6.83699 -2812.34 -2812.49 -1020.97 9.38599e-09 -0.0353467 1.57298e-06
8 2 3.2245 0 9.11598 -2812.36 -2812.5 -1021.14 -2.8554e-06 -0.0237848 -1.11704e-06
9 2 1.61225 0 11.395 -2812.36 -2812.5 -1021.14 2.50934e-06 -0.0237774 2.04175e-06
10 2 2.41837 1.39625 6.83699 -2812.33 -2812.49 -1020.97 -6.35539e-06 -0.0353517 -3.25194e-06
11 2 0.806124 1.39625 9.11598 -2812.36 -2812.5 -1021.14 -2.08952e-06 -0.0237773 -7.06865e-06
12 2 4.03062 1.39625 11.395 -2812.36 -2812.5 -1021.14 1.40504e-05 -0.0237685 1.88011e-05
13 2 0 0 13.674 -2812.34 -2812.49 -1021.06 -2.74615e-08 -0.0353466 9.27338e-06
14 2 3.2245 0 15.953 -2812.36 -2812.5 -1021.14 3.17091e-06 -0.0237682 2.70257e-06
15 2 1.61225 0 18.232 -2812.36 -2812.5 -1021.04 -1.91457e-06 -0.0237757 1.10724e-06
16 2 2.41837 1.39625 13.674 -2812.34 -2812.49 -1021.06 1.51407e-05 -0.0353375 1.97357e-05
17 2 0.806124 1.39625 15.953 -2812.36 -2812.5 -1021.14 3.049e-06 -0.0237747 1.749e-05
18 2 4.03062 1.39625 18.232 -2812.36 -2812.5 -1021.04 -3.49513e-05 -0.0237917 -2.15908e-05
19 2 0 0 20.511 -2804.07 -2804.22 -877.709 -1.25959e-07 -0.0353463 -3.92155e-06
20 2 3.2245 0 22.79 -1940.76 -1940.9 5336.46 -1.18435e-05 -0.0237844 -3.13102e-06
21 2 1.61225 0 25.069 1639.46 1639.45 -62.5457 -2.94859e-06 -0.000747616 -7.44784e-07
22 2 2.41837 1.39625 20.511 -2804.07 -2804.22 -877.709 -3.20993e-05 -0.035361 -1.68919e-05
23 2 0.806124 1.39625 22.79 -1940.76 -1940.9 5336.46 -8.02912e-06 -0.0237804 -7.77248e-06
24 2 4.03062 1.39625 25.069 1639.46 1639.45 -62.5457 -9.28886e-08 -0.000745891 1.83687e-06
25 2 0 2.7925 0 2596.05 2596.03 -99.025 -2.08911e-08 -0.00342803 -2.33459e-06
26 2 3.2245 2.7925 2.279 -1940.76 -1940.9 5336.46 2.77723e-06 -0.0237705 3.9344e-06
27 2 1.61225 2.7925 4.55799 -2804.09 -2804.23 -877.784 -1.00752e-06 -0.0237733 8.10429e-06
28 2 2.41837 4.18874 0 2596.05 2596.03 -99.025 1.7007e-06 -0.00342553 -7.68292e-07
29 2 0.806124 4.18874 2.279 -1940.76 -1940.9 5336.46 5.09276e-07 -0.0237755 5.90015e-06
30 2 4.03062 4.18874 4.55799 -2804.09 -2804.23 -877.784 -5.35712e-06 -0.0237725 3.38244e-08
31 2 0 2.7925 6.83699 -2812.34 -2812.49 -1020.97 -8.20364e-08 -0.0353465 -5.63115e-06
32 2 3.2245 2.7925 9.11598 -2812.36 -2812.5 -1021.14 7.20443e-06 -0.0237723 5.61711e-06
33 2 1.61225 2.7925 11.395 -2812.36 -2812.5 -1021.14 1.26083e-05 -0.0237653 1.68703e-05
34 2 2.41837 4.18874 6.83699 -2812.33 -2812.49 -1020.97 -1.76889e-06 -0.035348 -5.84829e-06
35 2 0.806124 4.18874 9.11598 -2812.36 -2812.5 -1021.14 4.9264e-06 -0.0237705 -2.12812e-06
36 2 4.03062 4.18874 11.395 -2812.36 -2812.5 -1021.14 1.63994e-06 -0.0237842 3.81343e-07
37 2 0 2.7925 13.674 -2812.34 -2812.49 -1021.06 2.91112e-07 -0.0353469 3.24545e-05
38 2 3.2245 2.7925 15.953 -2812.36 -2812.5 -1021.14 -2.8928e-05 -0.023793 -7.96216e-06
39 2 1.61225 2.7925 18.232 -2812.36 -2812.5 -1021.04 -3.45962e-05 -0.0237945 -1.42924e-05
40 2 2.41837 4.18874 13.674 -2812.34 -2812.49 -1021.06 -1.881e-05 -0.035365 9.86158e-06
41 2 0.806124 4.18874 15.953 -2812.36 -2812.5 -1021.14 -1.91659e-05 -0.0237879 3.81742e-06
42 2 4.03062 4.18874 18.232 -2812.36 -2812.5 -1021.04 1.73254e-05 -0.0237557 2.47051e-05
43 2 0 2.7925 20.511 -2804.07 -2804.22 -877.709 -1.15993e-07 -0.0353466 -2.34643e-05
44 2 3.2245 2.7925 22.79 -1940.76 -1940.9 5336.46 2.93157e-06 -0.0237749 5.88075e-07
45 2 1.61225 2.7925 25.069 1639.46 1639.45 -62.5457 -1.77117e-06 -0.000745131 2.62941e-07
46 2 2.41837 4.18874 20.511 -2804.07 -2804.22 -877.709 9.54664e-07 -0.0353371 -7.59837e-06
47 2 0.806124 4.18874 22.79 -1940.76 -1940.9 5336.46 2.3095e-06 -0.0237749 -7.55479e-06
48 2 4.03062 4.18874 25.069 1639.46 1639.45 -62.5457 1.05725e-05 -0.000748688 -2.60578e-06
49 2 0 5.58499 0 2596.05 2596.03 -99.025 5.49429e-09 -0.00342803 1.17449e-06
50 2 3.2245 5.58499 2.279 -1940.76 -1940.9 5336.46 -2.74769e-06 -0.0237753 1.33351e-06
51 2 1.61225 5.58499 4.55799 -2804.09 -2804.23 -877.784 -6.38118e-06 -0.0237776 -3.04397e-06
52 2 2.41837 6.98124 0 2596.05 2596.03 -99.025 2.00805e-07 -0.00342673 2.23704e-06
53 2 0.806124 6.98124 2.279 -1940.76 -1940.9 5336.46 -1.45356e-06 -0.0237778 4.68862e-06
54 2 4.03062 6.98124 4.55799 -2804.09 -2804.23 -877.784 -9.12067e-06 -0.0237621 3.84825e-06
55 2 0 5.58499 6.83699 -2812.34 -2812.49 -1020.97 -2.21051e-07 -0.0353465 -1.73581e-05
56 2 3.2245 5.58499 9.11598 -2812.36 -2812.5 -1021.14 1.8835e-05 -0.0237626 8.84233e-06
57 2 1.61225 5.58499 11.395 -2812.36 -2812.5 -1021.14 5.14814e-06 -0.023779 2.38002e-05
58 2 2.41837 6.98124 6.83699 -2812.33 -2812.49 -1020.97 9.56875e-06 -0.0353223 -5.16296e-07
59 2 0.806124 6.98124 9.11598 -2812.36 -2812.5 -1021.14 8.89895e-06 -0.0237663 1.1336e-05
60 2 4.03062 6.98124 11.395 -2812.36 -2812.5 -1021.14 -3.43523e-05 -0.023832 -3.58511e-05
61 2 0 5.58499 13.674 -2812.34 -2812.49 -1021.06 5.793e-07 -0.0353464 2.54158e-05
62 2 3.2245 5.58499 15.953 -2812.36 -2812.5 -1021.14 -3.63284e-05 -0.0237878 6.90449e-06
63 2 1.61225 5.58499 18.232 -2812.36 -2812.5 -1021.04 -1.93249e-05 -0.0237705 -2.31755e-05
64 2 2.41837 6.98124 13.674 -2812.34 -2812.49 -1021.06 -6.03957e-05 -0.0354085 -1.18097e-05
65 2 0.806124 6.98124 15.953 -2812.36 -2812.5 -1021.14 -2.23164e-05 -0.0237855 -2.76856e-05
66 2 4.03062 6.98124 18.232 -2812.36 -2812.5 -1021.04 0.000115806 -0.0237041 6.34135e-05
67 2 0 5.58499 20.511 -2804.07 -2804.22 -877.709 -1.57444e-06 -0.0353476 -3.22693e-05
68 2 3.2245 5.58499 22.79 -1940.76 -1940.9 5336.46 4.24997e-05 -0.0237741 -2.74625e-06
69 2 1.61225 5.58499 25.069 1639.46 1639.45 -62.5457 1.36014e-05 -0.000746881 1.39934e-06
70 2 2.41837 6.98124 20.511 -2804.07 -2804.22 -877.709 0.00012375 -0.0352883 1.3133e-05
71 2 0.806124 6.98124 22.79 -1940.76 -1940.9 5336.46 4.28467e-05 -0.0237707 6.18061e-06
72 2 4.03062 6.98124 25.069 1639.46 1639.45 -62.5457 -1.82356e-05 -0.000752622 -6.08536e-06
73 2 0 8.37749 0 2596.05 2596.03 -99.025 3.05534e-08 -0.003428 4.94114e-06
74 2 3.2245 8.37749 2.279 -1940.76 -1940.9 5336.46 -7.36298e-06 -0.0237814 1.38685e-07
75 2 1.61225 8.37749 4.55799 -2804.09 -2804.23 -877.784 -6.95474e-06 -0.0237711 -6.28778e-06
76 2 2.41837 9.77373 0 2596.05 2596.03 -99.025 -6.48962e-07 -0.0034304 3.35633e-06
77 2 0.806124 9.77373 2.279 -1940.76 -1940.9 5336.46 -2.32674e-06 -0.0237802 3.90032e-06
78 2 4.03062 9.77373 4.55799 -2804.09 -2804.23 -877.784 -4.69257e-06 -0.0237416 1.68273e-05
79 2 0 8.37749 6.83699 -2812.33 -2812.49 -1020.96 -3.01438e-07 -0.035347 -8.01176e-06
80 2 3.2245 8.37749 9.11598 -2812.36 -2812.5 -1021.14 -2.73235e-06 -0.0237854 -1.11097e-05
81 2 1.61225 8.37749 11.395 -2812.36 -2812.5 -1021.14 -2.95843e-05 -0.023825 -3.94608e-06
82 2 2.41837 9.77373 6.83699 -2812.33 -2812.49 -1020.97 1.0573e-05 -0.0353028 1.08723e-05
83 2 0.806124 9.77373 9.11598 -2812.36 -2812.5 -1021.14 -1.37149e-06 -0.0237792 1.35436e-05
84 2 4.03062 9.77373 11.395 -2812.36 -2812.5 -1021.14 -3.61123e-05 -0.0238248 -2.04064e-05
85 2 0 8.37749 13.674 -2812.34 -2812.49 -1021.06 -1.67963e-07 -0.0353461 -2.38271e-05
86 2 3.2245 8.37749 15.953 -2812.36 -2812.5 -1021.14 9.8635e-05 -0.0236706 8.28314e-05
87 2 1.61225 8.37749 18.232 -2812.36 -2812.5 -1021.04 0.000139172 -0.0236576 2.26267e-05
88 2 2.41837 9.77373 13.674 -2812.34 -2812.49 -1021.06 -1.12332e-05 -0.0353459 7.42858e-06
89 2 0.806124 9.77373 15.953 -2812.36 -2812.5 -1021.14 4.31273e-05 -0.0237148 -2.2915e-05
90 2 4.03062 9.77373 18.232 -2812.36 -2812.5 -1021.04 -3.66171e-05 -0.0238324 -4.47535e-05
91 2 0 8.37749 20.511 -2804.07 -2804.22 -877.709 -1.87428e-06 -0.035348 2.08479e-05
92 2 3.2245 8.37749 22.79 -1940.76 -1940.9 5336.46 -1.97802e-05 -0.0237963 -1.6361e-05
93 2 1.61225 8.37749 25.069 1639.46 1639.45 -62.5457 8.93183e-06 -0.000757108 -1.97529e-06
94 2 2.41837 9.77373 20.511 -2804.07 -2804.22 -877.71 3.04292e-05 -0.0353681 -2.71768e-05
95 2 0.806124 9.77373 22.79 -1940.76 -1940.9 5336.46 1.50601e-05 -0.0237942 3.81425e-06
96 2 4.03062 9.77373 25.069 1639.46 1639.45 -62.5457 -6.08179e-05 -0.00072887 1.24902e-05
97 2 0 11.17 0 2596.05 2596.03 -99.025 2.85813e-08 -0.00342795 4.35602e-06
98 2 3.2245 11.17 2.279 -1940.76 -1940.9 5336.46 -5.19539e-06 -0.0237849 3.1487e-06
99 2 1.61225 11.17 4.55799 -2804.09 -2804.23 -877.784 -4.42489e-07 -0.0237552 9.81378e-06
100 2 2.41837 12.5662 0 2596.05 2596.03 -99.025 1.90594e-07 -0.00343432 6.61016e-07
101 2 0.806124 12.5662 2.279 -1940.76 -1940.9 5336.46 -1.1238e-06 -0.0237811 4.12018e-06
102 2 4.03062 12.5662 4.55799 -2804.09 -2804.23 -877.784 3.30735e-06 -0.0237348 2.6792e-05
103 2 0 11.17 6.83699 -2812.33 -2812.48 -1020.96 4.24585e-09 -0.035347 2.29704e-05
104 2 3.2245 11.17 9.11598 -2812.36 -2812.5 -1021.14 -3.86334e-05 -0.0238356 -3.24393e-05
105 2 1.61225 11.17 11.395 -2812.36 -2812.5 -1021.14 -4.96578e-05 -0.0238537 -3.58944e-05
106 2 2.41837 12.5662 6.83699 -2812.33 -2812.49 -1020.97 -1.026e-06 -0.0353214 1.94984e-05
107 2 0.806124 12.5662 9.11598 -2812.36 -2812.5 -1021.14 -1.34947e-05 -0.0238026 3.99181e-06
108 2 4.03062 12.5662 11.395 -2812.36 -2812.5 -1021.13 3.89544e-05 -0.023655 7.39859e-05
109 2 0 11.17 13.674 -2812.34 -2812.49 -1021.06 -3.13492e-06 -0.0353486 -6.61393e-05
110 2 3.2245 11.17 15.953 -2812.36 -2812.5 -1021.14 0.000104407 -0.0236712 4.80868e-05
111 2 1.61225 11.17 18.232 -2812.36 -2812.5 -1021.04 0.000163978 -0.02366 4.07507e-05
112 2 2.41837 12.5662 13.674 -2812.34 -2812.49 -1021.06 0.000109066 -0.0351381 6.04083e-05
113 2 0.806124 12.5662 15.953 -2812.36 -2812.5 -1021.13 0.000123299 -0.0236069 4.6671e-05
114 2 4.03062 12.5662 18.232 -2812.36 -2812.5 -1021.04 -0.000278067 -0.0240908 -0.000188886
115 2 0 11.17 20.511 -2804.07 -2804.22 -877.709 4.3173e-06 -0.0353452 4.90699e-05
116 2 3.2245 11.17 22.79 -1940.76 -1940.9 5336.46 -0.000205591 -0.023838 -3.71022e-05
117 2 1.61225 11.17 25.069 1639.46 1639.45 -62.5457 -3.28946e-05 -0.000756949 -2.50334e-06
118 2 2.41837 12.5662 20.511 -2804.07 -2804.22 -877.71 -0.000180808 -0.035531 -8.26968e-05
119 2 0.806124 12.5662 22.79 -1940.76 -1940.9 5336.46 -1.75984e-05 -0.0237922 -4.60102e-06
120 2 4.03062 12.5662 25.069 1639.46 1639.45 -62.5456 4.08747e-05 -0.000669194 4.56668e-05
121 2 0 13.9625 0 2596.05 2596.03 -99.025 9.22712e-09 -0.00342791 -4.5508e-07
122 2 3.2245 13.9625 2.279 -1940.76 -1940.9 5336.46 1.83599e-06 -0.0237832 6.43712e-06
123 2 1.61225 13.9625 4.55799 -2804.09 -2804.23 -877.784 7.2393e-06 -0.0237422 3.00925e-05
124 2 2.41837 15.3587 0 2596.05 2596.03 -99.025 1.3422e-06 -0.00343613 -3.26726e-06
125 2 0.806124 15.3587 2.279 -1940.76 -1940.9 5336.46 7.11174e-07 -0.0237801 3.18694e-06
126 2 4.03062 15.3587 4.55799 -2804.09 -2804.23 -877.784 8.19932e-06 -0.023749 2.51901e-05
127 2 0 13.9625 6.83699 -2812.33 -2812.48 -1020.96 4.85939e-07 -0.0353461 4.64656e-05
128 2 3.2245 13.9625 9.11598 -2812.36 -2812.5 -1021.14 -5.35915e-05 -0.0238771 -2.82961e-05
129 2 1.61225 13.9625 11.395 -2812.36 -2812.5 -1021.14 -3.09906e-05 -0.0238141 -3.84026e-05
130 2 2.41837 15.3587 6.83699 -2812.33 -2812.49 -1020.97 -9.58931e-06 -0.0353685 2.13561e-05
131 2 0.806124 15.3587 9.11598 -2812.36 -2812.5 -1021.14 -1.60001e-05 -0.0238217 -2.24091e-06
132 2 4.03062 15.3587 11.395 -2812.36 -2812.5 -1021.13 8.69943e-05 -0.0234715 0.000117076
133 2 0 13.9625 13.674 -2812.34 -2812.49 -1021.06 -6.17095e-06 -0.0353564 -4.87077e-05
134 2 3.2245 13.9625 15.953 -2812.36 -2812.5 -1021.14 1.12127e-06 -0.0237897 -1.18474e-05
135 2 1.61225 13.9625 18.232 -2812.36 -2812.5 -1021.04 -6.98583e-06 -0.0238537 -9.86141e-06
136 2 2.41837 15.3587 13.674 -2812.34 -2812.49 -1021.06 0.000127433 -0.0350213 6.32422e-05
137 2 0.806124 15.3587 15.953 -2812.36 -2812.5 -1021.13 9.66831e-05 -0.0236196 7.68268e-05
138 2 4.03062 15.3587 18.232 -2812.36 -2812.49 -1021.04 -0.000759492 -0.0247531 -0.000445924
139 2 0 13.9625 20.511 -2804.07 -2804.22 -877.71 5.39852e-06 -0.0353427 1.62076e-06
140 2 3.2245 13.9625 22.79 -1940.76 -1940.89 5336.46 -0.000300877 -0.0235966 7.80135e-05
141 2 1.61225 13.9625 25.069 1639.46 1639.45 -62.5457 -5.95407e-05 -0.000730209 3.53494e-06
142 2 2.41837 15.3587 20.511 -2804.07 -2804.22 -877.709 -0.00048218 -0.0358613 -0.000148409
143 2 0.806124 15.3587 22.79 -1940.76 -1940.9 5336.46 1.2239e-05 -0.0237725 3.40399e-06
144 2 4.03062 15.3587 25.069 1639.47 1639.45 -62.5457 0.000198735 -0.000692662 2.90658e-05
145 2 0 16.755 0 2596.05 2596.03 -99.025 -1.31284e-09 -0.00342791 -4.03988e-06
146 2 3.2245 16.755 2.279 -1940.76 -1940.9 5336.46 5.50639e-06 -0.0237784 5.52059e-06
147 2 1.61225 16.755 4.55799 -2804.09 -2804.23 -877.784 9.06357e-06 -0.0237396 3.14904e-05
148 2 2.41837 18.1512 0 2596.05 2596.03 -99.025 1.22772e-06 -0.00343593 -3.73002e-06
149 2 0.806124 18.1512 2.279 -1940.76 -1940.9 5336.46 1.08326e-06 -0.0237783 1.22843e-06
150 2 4.03062 18.1512 4.55799 -2804.09 -2804.23 -877.785 6.66502e-06 -0.0237678 1.43518e-05
151 2 0 16.755 6.83699 -2812.33 -2812.49 -1020.96 5.62162e-07 -0.0353449 4.23058e-05
152 2 3.2245 16.755 9.11598 -2812.36 -2812.5 -1021.14 -3.45739e-05 -0.0238726 -3.63549e-06
153 2 1.61225 16.755 11.395 -2812.36 -2812.5 -1021.14 3.42582e-06 -0.023704 -1.33717e-05
154 2 2.41837 18.1512 6.83699 -2812.34 -2812.49 -1020.97 -7.43937e-06 -0.0354114 1.43259e-05
155 2 0.806124 18.1512 9.11598 -2812.36 -2812.5 -1021.14 -9.67387e-06 -0.0238309 -1.75408e-06
156 2 4.03062 18.1512 11.395 -2812.36 -2812.5 -1021.14 5.37544e-05 -0.023437 6.67452e-05
157 2 0 16.755 13.674 -2812.34 -2812.49 -1021.06 -4.09052e-06 -0.035365 6.10498e-06
158 2 3.2245 16.755 15.953 -2812.36 -2812.5 -1021.14 -8.84406e-06 -0.0238057 -9.19468e-06
159 2 1.61225 16.755 18.232 -2812.36 -2812.5 -1021.04 -7.40277e-05 -0.023995 -3.08788e-05
160 2 2.41837 18.1512 13.674 -2812.34 -2812.49 -1021.06 6.01719e-05 -0.0350619 2.80935e-05
161 2 0.806124 18.1512 15.953 -2812.36 -2812.5 -1021.14 3.2447e-05 -0.0237106 4.05753e-05
162 2 4.03062 18.1512 18.232 -2812.36 -2812.49 -1021.04 -0.000511013 -0.0245101 -0.000256938
163 2 0 16.755 20.511 -2804.07 -2804.22 -877.712 8.48419e-08 -0.0353465 -3.26998e-07
164 2 3.2245 16.755 22.79 -1940.75 -1940.89 5336.46 0.00038275 -0.0227247 0.000280172
165 2 1.61225 16.755 25.069 1639.46 1639.45 -62.5457 -3.85903e-05 -0.000683204 8.58358e-06
166 2 2.41837 18.1512 20.511 -2804.07 -2804.22 -877.707 -0.000421397 -0.0360066 -9.69808e-05
167 2 0.806124 18.1512 22.79 -1940.76 -1940.9 5336.46 -5.2063e-06 -0.0237812 -1.5216e-06
168 2 4.03062 18.1512 25.069 1639.47 1639.45 -62.5458 0.000114204 -0.000777418 1.23544e-06
169 2 0 19.5475 0 2596.05 2596.03 -99.025 2.55162e-09 -0.00342791 -2.2577e-06
170 2 3.2245 19.5475 2.279 -1940.76 -1940.9 5336.46 2.65663e-06 -0.0237749 1.90193e-06
171 2 1.61225 19.5475 4.55799 -2804.09 -2804.23 -877.784 3.86864e-06 -0.0237421 1.24223e-05
172 2 2.41837 20.9437 0 2596.05 2596.03 -99.025 -2.70842e-08 -0.00343553 1.01856e-07
173 2 0.806124 20.9437 2.279 -1940.76 -1940.9 5336.46 -5.10353e-09 -0.0237775 -3.08853e-08
174 2 4.03062 20.9437 4.55799 -2804.09 -2804.23 -877.785 -1.70978e-07 -0.0237754 -3.96633e-07
175 2 0 19.5475 6.83699 -2812.33 -2812.49 -1020.97 1.90709e-07 -0.0353442 1.59692e-05
176 2 3.2245 19.5475 9.11598 -2812.36 -2812.5 -1021.14 -8.90504e-06 -0.0238443 4.50916e-06
177 2 1.61225 19.5475 11.395 -2812.36 -2812.5 -1021.13 8.35588e-06 -0.0236109 9.17795e-07
178 2 2.41837 20.9437 6.83699 -2812.34 -2812.49 -1020.97 1.45807e-07 -0.0354272 -4.52399e-07
179 2 0.806124 20.9437 9.11598 -2812.36 -2812.5 -1021.14 1.07215e-07 -0.0238328 6.99893e-08
180 2 4.03062 20.9437 11.395 -2812.36 -2812.5 -1021.14 -1.29715e-06 -0.0234523 -1.43295e-06
181 2 0 19.5475 13.674 -2812.33 -2812.49 -1021.06 -1.36366e-07 -0.0353684 1.36407e-05
182 2 3.2245 19.5475 15.953 -2812.36 -2812.5 -1021.14 -1.24889e-05 -0.0238928 -1.10556e-05
183 2 1.61225 19.5475 18.232 -2812.36 -2812.5 -1021.04 -3.91425e-05 -0.0240848 -1.60453e-05
184 2 2.41837 20.9437 13.674 -2812.34 -2812.49 -1021.06 -1.49188e-06 -0.0350983 -7.65062e-07
185 2 0.806124 20.9437 15.953 -2812.36 -2812.5 -1021.14 -6.95944e-07 -0.0237504 -1.24052e-06
186 2 4.03062 20.9437 18.232 -2812.36 -2812.49 -1021.04 2.50424e-05 -0.0239662 1.30706e-05
187 2 0 19.5475 20.511 -2804.07 -2804.22 -877.712 -3.69144e-07 -0.0353511 3.82939e-06
188 2 3.2245 19.5475 22.79 -1940.75 -1940.89 5336.46 0.000333739 -0.0221892 0.000142087
189 2 1.61225 19.5475 25.069 1639.46 1639.45 -62.5457 -7.25318e-06 -0.000648918 4.4429e-06
190 2 2.41837 20.9437 20.511 -2804.07 -2804.22 -877.706 1.59948e-05 -0.0359326 4.3148e-06
191 2 0.806124 20.9437 22.79 -1940.76 -1940.9 5336.46 1.79976e-07 -0.023782 1.61206e-07
192 2 4.03062 20.9437 25.069 1639.46 1639.45 -62.5458 -1.85494e-06 -0.000799156 -2.04005e-07
193 2 0 22.34 0 2596.05 2596.03 -99.025 8.50834e-09 -0.00342791 2.42105e-06
194 2 3.2245 22.34 2.279 -1940.76 -1940.9 5336.46 -2.83629e-06 -0.023775 -2.06264e-06
195 2 1.61225 22.34 4.55799 -2804.09 -2804.23 -877.784 -4.09532e-06 -0.0237421 -1.35444e-05
196 2 2.41837 23.7362 0 2596.05 2596.03 -99.025 -1.27077e-06 -0.00343593 3.81099e-06
197 2 0.806124 23.7362 2.279 -1940.76 -1940.9 5336.46 -1.08959e-06 -0.0237783 -1.34546e-06
198 2 4.03062 23.7362 4.55799 -2804.09 -2804.23 -877.784 -6.89283e-06 -0.0237672 -1.50725e-05
199 2 0 22.34 6.83699 -2812.33 -2812.49 -1020.97 -3.01143e-07 -0.0353444 -1.7294e-05
200 2 3.2245 22.34 9.11598 -2812.36 -2812.5 -1021.14 1.01349e-05 -0.0238449 -4.29677e-06
201 2 1.61225 22.34 11.395 -2812.36 -2812.5 -1021.13 -8.41163e-06 -0.0236129 3.29766e-08
202 2 2.41837 23.7362 6.83699 -2812.34 -2812.49 -1020.97 7.62107e-06 -0.0354102 -1.50828e-05
203 2 0.806124 23.7362 9.11598 -2812.36 -2812.5 -1021.14 9.80931e-06 -0.0238306 1.80936e-06
204 2 4.03062 23.7362 11.395 -2812.36 -2812.5 -1021.14 -5.55614e-05 -0.0234391 -6.90206e-05
205 2 0 22.34 13.674 -2812.34 -2812.49 -1021.06 2.36487e-06 -0.035368 -1.44301e-05
206 2 3.2245 22.34 15.953 -2812.36 -2812.5 -1021.14 1.30286e-05 -0.0238923 1.16276e-05
207 2 1.61225 22.34 18.232 -2812.36 -2812.5 -1021.04 4.11388e-05 -0.0240856 1.65365e-05
208 2 2.41837 23.7362 13.674 -2812.34 -2812.49 -1021.06 -6.30743e-05 -0.0350617 -2.93208e-05
209 2 0.806124 23.7362 15.953 -2812.36 -2812.5 -1021.14 -3.3807e-05 -0.0237101 -4.28449e-05
210 2 4.03062 23.7362 18.232 -2812.36 -2812.49 -1021.04 0.000540947 -0.024508 0.000275233
211 2 0 22.34 20.511 -2804.07 -2804.22 -877.712 1.20028e-06 -0.0353509 -4.03705e-06
212 2 3.2245 22.34 22.79 -1940.75 -1940.89 5336.46 -0.00032755 -0.02221 -0.00014774
213 2 1.61225 22.34 25.069 1639.46 1639.45 -62.5457 8.84863e-06 -0.000649924 -4.58201e-06
214 2 2.41837 23.7362 20.511 -2804.07 -2804.22 -877.707 0.000436885 -0.0359981 0.000102061
215 2 0.806124 23.7362 22.79 -1940.76 -1940.9 5336.46 4.97667e-06 -0.0237811 1.50077e-06
216 2 4.03062 23.7362 25.069 1639.47 1639.45 -62.5458 -0.000116643 -0.000776058 -2.07583e-06
217 2 0 25.1325 0 2596.05 2596.03 -99.025 6.12864e-10 -0.00342791 3.98658e-06
218 2 3.2245 25.1325 2.279 -1940.76 -1940.9 5336.46 -5.51029e-06 -0.0237786 -5.67274e-06
219 2 1.61225 25.1325 4.55799 -2804.09 -2804.23 -877.784 -9.11577e-06 -0.0237397 -3.20158e-05
220 2 2.41837 26.5287 0 2596.05 2596.03 -99.025 -1.35013e-06 -0.00343609 3.12513e-06
221 2 0.806124 26.5287 2.279 -1940.76 -1940.9 5336.46 -7.007e-07 -0.0237801 -3.33846e-06
222 2 4.03062 26.5287 4.55799 -2804.09 -2804.23 -877.784 -8.11781e-06 -0.0237483 -2.55136e-05
223 2 0 25.1325 6.83699 -2812.33 -2812.49 -1020.96 -5.70102e-07 -0.0353455 -4.31094e-05
224 2 3.2245 25.1325 9.11598 -2812.36 -2812.5 -1021.14 3.58371e-05 -0.0238727 4.49377e-06
225 2 1.61225 25.1325 11.395 -2812.36 -2812.5 -1021.14 -2.33723e-06 -0.023708 1.48679e-05
226 2 2.41837 26.5287 6.83699 -2812.33 -2812.49 -1020.97 9.43846e-06 -0.0353666 -2.16133e-05
227 2 0.806124 26.5287 9.11598 -2812.36 -2812.5 -1021.14 1.59815e-05 -0.0238213 2.00202e-06
228 2 4.03062 26.5287 11.395 -2812.36 -2812.5 -1021.13 -8.53003e-05 -0.0234797 -0.000116008
229 2 0 25.1325 13.674 -2812.34 -2812.49 -1021.06 5.26709e-06 -0.0353625 -4.2841e-06
230 2 3.2245 25.1325 15.953 -2812.36 -2812.5 -1021.14 9.70892e-06 -0.0238087 1.0328e-05
231 2 1.61225 25.1325 18.232 -2812.36 -2812.5 -1021.04 7.47779e-05 -0.0239965 3.08457e-05
232 2 2.41837 26.5287 13.674 -2812.34 -2812.49 -1021.06 -0.000127391 -0.0350266 -6.25626e-05
233 2 0.806124 26.5287 15.953 -2812.36 -2812.5 -1021.13 -9.70175e-05 -0.0236197 -7.61993e-05
234 2 4.03062 26.5287 18.232 -2812.36 -2812.49 -1021.04 0.000737927 -0.0247102 0.000436342
235 2 0 25.1325 20.511 -2804.07 -2804.22 -877.712 -2.67461e-07 -0.0353463 9.09883e-07
236 2 3.2245 25.1325 22.79 -1940.75 -1940.89 5336.46 -0.000346891 -0.0227717 -0.000271053
237 2 1.61225 25.1325 25.069 1639.46 1639.45 -62.5457 3.96714e-05 -0.000685163 -8.32889e-06
238 2 2.41837 26.5287 20.511 -2804.07 -2804.22 -877.709 0.000471576 -0.0358444 0.00014614
239 2 0.806124 26.5287 22.79 -1940.76 -1940.9 5336.46 -9.78154e-06 -0.0237737 -2.69963e-06
240 2 4.03062 26.5287 25.069 1639.47 1639.45 -62.5457 -0.000191689 -0.000693183 -2.9507e-05
241 2 0 27.925 0 2596.05 2596.03 -99.025 -2.27359e-08 -0.00342794 2.26977e-07
242 2 3.2245 27.925 2.279 -1940.76 -1940.9 5336.46 -1.60263e-06 -0.0237832 -6.42872e-06
243 2 1.61225 27.925 4.55799 -2804.09 -2804.23 -877.784 -7.02154e-06 -0.0237425 -2.95043e-05
244 2 2.41837 29.3212 0 2596.05 2596.03 -99.025 -1.62846e-07 -0.00343419 -8.59564e-07
245 2 0.806124 29.3212 2.279 -1940.76 -1940.9 5336.46 1.14014e-06 -0.0237811 -4.16468e-06
246 2 4.03062 29.3212 4.55799 -2804.09 -2804.23 -877.784 -2.89858e-06 -0.0237348 -2.63509e-05
247 2 0 27.925 6.83699 -2812.33 -2812.48 -1020.96 -3.0402e-07 -0.0353468 -4.60485e-05
248 2 3.2245 27.925 9.11598 -2812.36 -2812.5 -1021.14 5.35097e-05 -0.0238752 2.86149e-05
249 2 1.61225 27.925 11.395 -2812.36 -2812.5 -1021.14 3.19087e-05 -0.023816 3.85875e-05
250 2 2.41837 29.3212 6.83699 -2812.33 -2812.49 -1020.97 6.25696e-07 -0.0353201 -1.89896e-05
251 2 0.806124 29.3212 9.11598 -2812.36 -2812.5 -1021.14 1.33792e-05 -0.0238023 -4.46808e-06
252 2 4.03062 29.3212 11.395 -2812.36 -2812.5 -1021.13 -3.48375e-05 -0.0236645 -6.98174e-05
253 2 0 27.925 13.674 -2812.34 -2812.49 -1021.06 4.82018e-06 -0.0353518 5.08365e-05
254 2 3.2245 27.925 15.953 -2812.36 -2812.5 -1021.14 -2.74964e-06 -0.023789 1.21288e-05
255 2 1.61225 27.925 18.232 -2812.36 -2812.5 -1021.04 2.73229e-06 -0.0238495 8.80344e-06
256 2 2.41837 29.3212 13.674 -2812.34 -2812.49 -1021.06 -0.00010371 -0.035149 -5.76856e-05
257 2 0.806124 29.3212 15.953 -2812.36 -2812.5 -1021.13 -0.000121194 -0.0236096 -4.21967e-05
258 2 4.03062 29.3212 18.232 -2812.36 -2812.5 -1021.04 0.000264569 -0.0240749 0.000181591
259 2 0 27.925 20.511 -2804.07 -2804.22 -877.71 -2.99373e-06 -0.0353455 -2.98905e-06
260 2 3.2245 27.925 22.79 -1940.76 -1940.89 5336.46 0.00029779 -0.0236143 -7.0089e-05
261 2 1.61225 27.925 25.069 1639.46 1639.45 -62.5457 5.88067e-05 -0.000731379 -3.33052e-06
262 2 2.41837 29.3212 20.511 -2804.07 -2804.22 -877.71 0.000173333 -0.0355249 8.13691e-05
263 2 0.806124 29.3212 22.79 -1940.76 -1940.9 5336.46 2.05567e-05 -0.0237945 5.06169e-06
264 2 4.03062 29.3212 25.069 1639.46 1639.45 -62.5457 -3.5874e-05 -0.00067335 -4.37504e-05
265 2 0 30.7174 0 2596.05 2596.03 -99.025 -3.56033e-08 -0.003428 -4.49341e-06
266 2 3.2245 30.7174 2.279 -1940.76 -1940.9 5336.46 5.40959e-06 -0.0237847 -2.98588e-06
267 2 1.61225 30.7174 4.55799 -2804.09 -2804.23 -877.784 7.31704e-07 -0.0237557 -8.71226e-06
268 2 2.41837 32.1137 0 2596.05 2596.03 -99.025 6.75813e-07 -0.00343023 -3.38048e-06
269 2 0.806124 32.1137 2.279 -1940.76 -1940.9 5336.46 2.32595e-06 -0.0237801 -3.83012e-06
270 2 4.03062 32.1137 4.55799 -2804.09 -2804.23 -877.784 5.06437e-06 -0.0237424 -1.5965e-05
271 2 0 30.7174 6.83699 -2812.33 -2812.48 -1020.96 1.80057e-07 -0.0353472 -2.15042e-05
272 2 3.2245 30.7174 9.11598 -2812.36 -2812.5 -1021.14 3.71238e-05 -0.0238329 3.16905e-05
273 2 1.61225 30.7174 11.395 -2812.36 -2812.5 -1021.14 4.92526e-05 -0.0238531 3.42038e-05
274 2 2.41837 32.1137 6.83699 -2812.33 -2812.49 -1020.97 -1.07284e-05 -0.0353032 -9.91596e-06
275 2 0.806124 32.1137 9.11598 -2812.36 -2812.5 -1021.14 1.22317e-06 -0.023779 -1.36992e-05
276 2 4.03062 32.1137 11.395 -2812.36 -2812.5 -1021.14 3.64224e-05 -0.0238262 2.14215e-05
277 2 0 30.7174 13.674 -2812.34 -2812.49 -1021.06 1.11636e-06 -0.0353456 6.51258e-05
278 2 3.2245 30.7174 15.953 -2812.36 -2812.5 -1021.14 -0.000105531 -0.0236707 -4.95342e-05
279 2 1.61225 30.7174 18.232 -2812.36 -2812.5 -1021.04 -0.000165249 -0.0236583 -3.90594e-05
280 2 2.41837 32.1137 13.674 -2812.34 -2812.49 -1021.06 1.47455e-05 -0.0353511 -6.99211e-06
281 2 0.806124 32.1137 15.953 -2812.36 -2812.5 -1021.14 -4.15365e-05 -0.0237169 2.42701e-05
282 2 4.03062 32.1137 18.232 -2812.36 -2812.5 -1021.04 3.29568e-05 -0.0238297 4.29546e-05
283 2 0 30.7174 20.511 -2804.07 -2804.22 -877.709 1.05088e-06 -0.0353494 -5.01721e-05
284 2 3.2245 30.7174 22.79 -1940.76 -1940.9 5336.46 0.000191482 -0.0238349 3.59814e-05
285 2 1.61225 30.7174 25.069 1639.46 1639.45 -62.5457 3.14181e-05 -0.000757121 2.34942e-06
286 2 2.41837 32.1137 20.511 -2804.07 -2804.22 -877.71 -3.53412e-05 -0.0353645 2.65879e-05
287 2 0.806124 32.1137 22.79 -1940.76 -1940.9 5336.46 -1.57296e-05 -0.0237942 -4.26206e-06
288 2 4.03062 32.1137 25.069 1639.46 1639.45 -62.5457 5.80177e-05 -0.000730388 -1.14151e-05
289 2 0 33.5099 0 2596.05 2596.03 -99.025 -1.66621e-08 -0.00342804 -4.82216e-06
290 2 3.2245 33.5099 2.279 -1940.76 -1940.9 5336.46 7.30235e-06 -0.0237811 -4.87155e-08
291 2 1.61225 33.5099 4.55799 -2804.09 -2804.23 -877.784 6.98367e-06 -0.0237714 6.69745e-06
292 2 2.41837 34.9062 0 2596.05 2596.03 -99.025 -1.94508e-07 -0.00342665 -2.06748e-06
293 2 0.806124 34.9062 2.279 -1940.76 -1940.9 5336.46 1.43476e-06 -0.0237777 -4.58574e-06
294 2 4.03062 34.9062 4.55799 -2804.09 -2804.23 -877.784 8.95421e-06 -0.0237628 -3.50241e-06
295 2 0 33.5099 6.83699 -2812.33 -2812.49 -1020.96 2.21245e-07 -0.0353466 9.02386e-06
296 2 3.2245 33.5099 9.11598 -2812.36 -2812.5 -1021.14 1.28017e-06 -0.0237839 1.02171e-05
297 2 1.61225 33.5099 11.395 -2812.36 -2812.5 -1021.14 2.84301e-05 -0.0238235 2.02389e-06
298 2 2.41837 34.9062 6.83699 -2812.33 -2812.49 -1020.97 -9.33423e-06 -0.0353235 9.55653e-07
299 2 0.806124 34.9062 9.11598 -2812.36 -2812.5 -1021.14 -8.91839e-06 -0.0237663 -1.08925e-05
300 2 4.03062 34.9062 11.395 -2812.36 -2812.5 -1021.14 3.23318e-05 -0.0238294 3.41951e-05
301 2 0 33.5099 13.674 -2812.34 -2812.49 -1021.06 -1.40927e-07 -0.0353459 2.1377e-05
302 2 3.2245 33.5099 15.953 -2812.36 -2812.5 -1021.14 -9.08266e-05 -0.0236778 -7.97501e-05
303 2 1.61225 33.5099 18.232 -2812.36 -2812.5 -1021.04 -0.000131825 -0.023663 -1.92083e-05
304 2 2.41837 34.9062 13.674 -2812.34 -2812.49 -1021.06 5.92573e-05 -0.0354071 1.01826e-05
305 2 0.806124 34.9062 15.953 -2812.36 -2812.5 -1021.14 2.23257e-05 -0.0237857 2.58944e-05
306 2 4.03062 34.9062 18.232 -2812.36 -2812.5 -1021.04 -0.000111819 -0.023706 -6.28869e-05
307 2 0 33.5099 20.511 -2804.07 -2804.22 -877.709 -1.20243e-07 -0.0353477 -1.77443e-05
308 2 3.2245 33.5099 22.79 -1940.76 -1940.9 5336.46 1.81002e-05 -0.0237958 1.64821e-05
309 2 1.61225 33.5099 25.069 1639.46 1639.45 -62.5457 -9.44362e-06 -0.000756692 1.74745e-06
310 2 2.41837 34.9062 20.511 -2804.07 -2804.22 -877.709 -0.00011778 -0.0352903 -1.17959e-05
311 2 0.806124 34.9062 22.79 -1940.76 -1940.9 5336.46 -4.20292e-05 -0.0237707 -5.15232e-06
312 2 4.03062 34.9062 25.069 1639.46 1639.45 -62.5457 1.66755e-05 -0.000752439 6.02629e-06
313 2 0 36.3024 0 2596.05 2596.03 -99.025 1.26875e-08 -0.00342804 -9.3758e-07
314 2 3.2245 36.3024 2.279 -1940.76 -1940.9 5336.46 2.50396e-06 -0.0237751 -1.3779e-06
315 2 1.61225 36.3024 4.55799 -2804.09 -2804.23 -877.784 6.1306e-06 -0.0237776 2.60224e-06
316 2 2.41837 37.6987 0 2596.05 2596.03 -99.025 -1.6997e-06 -0.00342557 9.23477e-07
317 2 0.806124 37.6987 2.279 -1940.76 -1940.9 5336.46 -5.30548e-07 -0.0237755 -5.80918e-06
318 2 4.03062 37.6987 4.55799 -2804.09 -2804.23 -877.784 4.86994e-06 -0.0237726 -3.03653e-07
319 2 0 36.3024 6.83699 -2812.34 -2812.49 -1020.97 2.23486e-08 -0.0353462 1.70197e-05
320 2 3.2245 36.3024 9.11598 -2812.36 -2812.5 -1021.14 -1.87774e-05 -0.0237627 -8.93637e-06
321 2 1.61225 36.3024 11.395 -2812.36 -2812.5 -1021.14 -5.77776e-06 -0.023778 -2.39734e-05
322 2 2.41837 37.6987 6.83699 -2812.33 -2812.49 -1020.97 1.96818e-06 -0.0353484 5.50658e-06
323 2 0.806124 37.6987 9.11598 -2812.36 -2812.5 -1021.14 -4.82745e-06 -0.0237706 2.4503e-06
324 2 4.03062 37.6987 11.395 -2812.36 -2812.5 -1021.14 -2.44629e-06 -0.0237827 -1.36655e-06
325 2 0 36.3024 13.674 -2812.34 -2812.49 -1021.06 3.56824e-07 -0.0353473 -2.68683e-05
326 2 3.2245 36.3024 15.953 -2812.36 -2812.5 -1021.14 3.76369e-05 -0.0237892 -5.90983e-06
327 2 1.61225 36.3024 18.232 -2812.36 -2812.5 -1021.04 2.16976e-05 -0.0237725 2.27617e-05
328 2 2.41837 37.6987 13.674 -2812.34 -2812.49 -1021.06 1.69848e-05 -0.0353632 -1.04863e-05
329 2 0.806124 37.6987 15.953 -2812.36 -2812.5 -1021.14 1.89877e-05 -0.0237878 -5.0582e-06
330 2 4.03062 37.6987 18.232 -2812.36 -2812.5 -1021.04 -1.30488e-05 -0.0237589 -2.19111e-05
331 2 0 36.3024 20.511 -2804.07 -2804.22 -877.709 -1.21494e-06 -0.0353463 3.28974e-05
332 2 3.2245 36.3024 22.79 -1940.76 -1940.9 5336.46 -4.09342e-05 -0.0237739 2.5644e-06
333 2 1.61225 36.3024 25.069 1639.46 1639.45 -62.5457 -1.29536e-05 -0.000746692 -1.30866e-06
334 2 2.41837 37.6987 20.511 -2804.07 -2804.22 -877.709 2.46574e-06 -0.0353392 8.09402e-06