ITEM: TIMESTEP
0
ITEM: NUMBER OF ATOMS
3074
ITEM: BOX BOUNDS pp pp pp
0.0000000000000000e+00 3.8693948398131120e+01
0.0000000000000000e+00 4.4679925159782847e+01
0.0000000000000000e+00 6.0000000000000000e+01
ITEM: ATOMS id type x y z c_peratom[1] c_peratom[2] c_peratom[3] c_peratom[4] c_peratom[5] c_peratom[6]
1 2 0 0 0 -205991 -205989 7857.41 3.01532e-05 0.272018 0.000107215
2 2 3.2245 0 2.279 29869.7 29871.8 -82132 -3.97816e-05 0.365807 -5.29049e-05
3 2 1.61225 0 4.55799 43157 43159.1 13509.7 -4.11959e-06 0.365781 -0.000138021
4 2 2.41837 1.39625 0 -205991 -205989 7857.41 -0.000185933 0.271902 0.000160068
5 2 0.806124 1.39625 2.279 29869.7 29871.8 -82132 -1.5631e-05 0.365915 -0.000103421
6 2 4.03062 1.39625 4.55799 43157 43159.1 13509.7 2.13251e-06 0.365773 -7.53089e-05
7 2 0 0 6.83699 43283.9 43286.2 15713.4 -1.9664e-05 0.544003 -1.74453e-05
8 2 3.2245 0 9.11598 43284.2 43286.4 15716 7.33268e-05 0.366087 5.57491e-05
9 2 1.61225 0 11.395 43284.2 43286.4 15716 -2.31039e-05 0.365977 2.90273e-05
10 2 2.41837 1.39625 6.83699 43283.9 43286.2 15713.4 0.000121517 0.544072 3.94098e-05
11 2 0.806124 1.39625 9.11598 43284.2 43286.4 15716 3.57232e-05 0.365947 0.000149543
12 2 4.03062 1.39625 11.395 43284.2 43286.4 15716 -0.00021651 0.365801 -0.000285834
13 2 0 0 13.674 43283.9 43286.2 15714.9 4.70231e-05 0.544034 -0.000116807
14 2 3.2245 0 15.953 43284.2 43286.4 15716 -0.000130742 0.365775 -9.18899e-05
15 2 1.61225 0 18.232 43284.2 43286.3 15714.5 -2.05292e-05 0.36589 -7.18385e-05
16 2 2.41837 1.39625 13.674 43283.9 43286.2 15714.9 -0.000271232 0.543855 -0.000324501
17 2 0.806124 1.39625 15.953 43284.2 43286.4 15716 -7.28789e-05 0.365891 -0.000296344
18 2 4.03062 1.39625 18.232 43284.2 43286.3 15714.5 0.000528253 0.366203 0.000348163
19 2 0 0 20.511 43156.6 43158.9 13508.6 -3.25362e-05 0.543979 4.08745e-05
20 2 3.2245 0 22.79 29869.7 29871.8 -82132 0.000167986 0.366065 5.60054e-05
21 2 1.61225 0 25.069 -205991 -205989 7858.56 0.000258218 0.0939551 0.000122886
22 2 2.41837 1.39625 20.511 43156.6 43158.9 13508.6 0.000440227 0.54423 0.000259951
23 2 0.806124 1.39625 22.79 29869.7 29871.8 -82132 7.16405e-05 0.365994 0.000119005
24 2 4.03062 1.39625 25.069 -205991 -205989 7858.56 0.00038865 0.0936995 -0.000235012
25 2 0 2.7925 0 -205991 -205989 7857.42 3.25357e-05 0.27203 0.000203736
26 2 3.2245 2.7925 2.279 29869.7 29871.8 -82132 -6.23691e-05 0.365848 -9.07112e-05
27 2 1.61225 2.7925 4.55799 43157 43159.1 13509.7 6.19295e-06 0.365881 -0.000200407
28 2 2.41837 4.18874 0 -205991 -205989 7857.42 -0.000185084 0.271821 8.64886e-05
29 2 0.806124 4.18874 2.279 29869.7 29871.8 -82132 -1.37078e-05 0.365926 -0.000115485
30 2 4.03062 4.18874 4.55799 43157 43159.1 13509.7 8.17347e-05 0.365924 -1.91434e-05
31 2 0 2.7925 6.83699 43283.9 43286.2 15713.4 -1.70525e-05 0.54399 5.70784e-05
32 2 3.2245 2.7925 9.11598 43284.2 43286.4 15716 -4.98425e-05 0.36589 -3.01699e-05
33 2 1.61225 2.7925 11.395 43284.2 43286.4 15716 -0.000150179 0.365785 -0.000222238
34 2 2.41837 4.18874 6.83699 43283.9 43286.2 15713.4 6.07862e-05 0.544068 0.000112994
35 2 0.806124 4.18874 9.11598 43284.2 43286.4 15716 -2.38989e-05 0.365888 6.30518e-05
36 2 4.03062 4.18874 11.395 43284.2 43286.4 15716 -0.000117288 0.36592 -0.000128038
37 2 0 2.7925 13.674 43283.9 43286.2 15714.9 9.21743e-06 0.544024 -0.000473964
38 2 3.2245 2.7925 15.953 43284.3 43286.4 15716 0.000368674 0.366162 7.00804e-05
39 2 1.61225 2.7925 18.232 43284.2 43286.3 15714.5 0.000396784 0.366165 0.000191831
40 2 2.41837 4.18874 13.674 43283.9 43286.2 15714.9 0.000182824 0.54418 -0.000272472
41 2 0.806124 4.18874 15.953 43284.3 43286.4 15716 0.000144004 0.366014 -0.000107785
42 2 4.03062 4.18874 18.232 43284.2 43286.3 15714.5 0.000289392 0.365919 -7.47487e-05
43 2 0 2.7925 20.511 43156.6 43159 13508.6 -0.000118499 0.543974 0.000341243
44 2 3.2245 2.7925 22.79 29869.7 29871.8 -82132 0.000133069 0.365943 3.03664e-05
45 2 1.61225 2.7925 25.069 -205991 -205989 7858.56 0.000397393 0.093681 1.73478e-06
46 2 2.41837 4.18874 20.511 43156.6 43158.9 13508.6 0.000313765 0.544011 0.00028339
47 2 0.806124 4.18874 22.79 29869.7 29871.8 -82132 5.78526e-05 0.365958 0.000142185
48 2 4.03062 4.18874 25.069 -205991 -205989 7858.56 -0.00158765 0.0938223 9.11196e-05
49 2 0 5.58499 0 -205991 -205989 7857.42 6.82027e-06 0.272024 -5.01534e-05
50 2 3.2245 5.58499 2.279 29869.7 29871.8 -82132 2.51134e-05 0.365929 -3.78344e-05
51 2 1.61225 5.58499 4.55799 43157 43159.1 13509.7 7.8081e-05 0.365967 2.28861e-05
52 2 2.41837 6.98124 0 -205991 -205989 7857.42 -3.16463e-05 0.271884 -0.000174296
53 2 0.806124 6.98124 2.279 29869.7 29871.8 -82132 1.02082e-05 0.365949 -7.28628e-05
54 2 4.03062 6.98124 4.55799 43157 43159.1 13509.7 0.000149118 0.365808 -2.11007e-05
55 2 0 5.58499 6.83699 43283.9 43286.2 15713.4 1.54951e-05 0.544037 0.000252231
56 2 3.2245 5.58499 9.11598 43284.2 43286.4 15716 -0.000328762 0.365666 -0.000179448
57 2 1.61225 5.58499 11.395 43284.2 43286.4 15716 -0.000130693 0.365883 -0.000472403
58 2 2.41837 6.98124 6.83699 43283.9 43286.2 15713.4 -0.000140225 0.5437 5.21525e-05
59 2 0.806124 6.98124 9.11598 43284.2 43286.4 15716 -0.00011288 0.365812 -0.000192762
60 2 4.03062 6.98124 11.395 43284.2 43286.4 15716 0.000514453 0.366773 0.000504621
61 2 0 5.58499 13.674 43283.9 43286.2 15714.9 -0.0001363 0.543876 -0.000448311
62 2 3.2245 5.58499 15.953 43284.2 43286.4 15716 0.000900914 0.366366 0.00012986
63 2 1.61225 5.58499 18.232 43284.2 43286.3 15714.5 0.000540259 0.366031 0.000544062
64 2 2.41837 6.98124 13.674 43283.9 43286.2 15714.9 0.000954723 0.544967 0.000199611
65 2 0.806124 6.98124 15.953 43284.3 43286.4 15716 0.000347769 0.366106 0.000464981
66 2 4.03062 6.98124 18.232 43284.2 43286.3 15714.5 -0.00219207 0.364414 -0.00126372
67 2 0 5.58499 20.511 43156.6 43158.9 13508.6 0.000201216 0.544153 0.00053955
68 2 3.2245 5.58499 22.79 29869.7 29871.8 -82132 -0.000844171 0.365794 -3.19445e-05
69 2 1.61225 5.58499 25.069 -205991 -205989 7858.56 -0.00131253 0.0936864 -0.000334473
70 2 2.41837 6.98124 20.511 43156.6 43158.9 13508.6 -0.00196692 0.542981 -0.000251662
71 2 0.806124 6.98124 22.79 29869.7 29871.8 -82132 -0.000400042 0.365858 -9.87416e-05
72 2 4.03062 6.98124 25.069 -205991 -205989 7858.57 0.000592995 0.0948319 0.000957259
73 2 0 8.37749 0 -205991 -205989 7857.42 -1.38715e-05 0.271991 -0.000378399
74 2 3.2245 8.37749 2.279 29869.7 29871.8 -82132 0.000114193 0.366027 3.47866e-06
75 2 1.61225 8.37749 4.55799 43157 43159.1 13509.7 0.000103607 0.365899 0.000146158
76 2 2.41837 9.77373 0 -205991 -205989 7857.42 6.90851e-05 0.272152 -0.000300983
77 2 0.806124 9.77373 2.279 29869.7 29871.8 -82132 2.7954e-05 0.365978 -4.9373e-05
78 2 4.03062 9.77373 4.55799 43157 43159.1 13509.7 8.66919e-05 0.365449 -0.000218242
79 2 0 8.37749 6.83699 43283.9 43286.2 15713.4 3.8969e-05 0.544114 0.000155388
80 2 3.2245 8.37749 9.11598 43284.3 43286.4 15716 -5.78859e-05 0.365959 6.85599e-05
81 2 1.61225 8.37749 11.395 43284.2 43286.4 15716 0.000339609 0.366518 -4.86373e-05
82 2 2.41837 9.77373 6.83699 43283.9 43286.2 15713.4 -0.000192472 0.543329 -0.000166925
83 2 0.806124 9.77373 9.11598 43284.2 43286.4 15716 -3.10518e-05 0.365904 -0.000250433
84 2 4.03062 9.77373 11.395 43284.2 43286.4 15716 0.000816673 0.367163 0.000574407
85 2 0 8.37749 13.674 43283.9 43286.2 15714.9 -0.000132659 0.543846 0.000298518
86 2 3.2245 8.37749 15.953 43284.2 43286.4 15716 -0.00120259 0.364532 -0.00107525
87 2 1.61225 8.37749 18.232 43284.2 43286.3 15714.5 -0.00166908 0.364426 -0.000172313
88 2 2.41837 9.77373 13.674 43283.9 43286.2 15714.9 0.000494673 0.544456 0.000202402
89 2 0.806124 9.77373 15.953 43284.2 43286.4 15716 -0.000213743 0.365524 0.000520008
90 2 4.03062 9.77373 18.232 43284.2 43286.4 15714.6 -0.000338175 0.366059 0.000268527
91 2 0 8.37749 20.511 43156.6 43158.9 13508.6 0.000623369 0.544289 -0.000211524
92 2 3.2245 8.37749 22.79 29869.7 29871.8 -82132 -2.66444e-05 0.366196 0.000223933
93 2 1.61225 8.37749 25.069 -205991 -205989 7858.56 -0.00178638 0.0948773 0.000126541
94 2 2.41837 9.77373 20.511 43156.6 43159 13508.6 -0.00132967 0.543853 0.000119976
95 2 0.806124 9.77373 22.79 29869.7 29871.8 -82132 -0.00040245 0.366051 -0.000127907
96 2 4.03062 9.77373 25.069 -205991 -205989 7858.56 0.00809596 0.0930877 -0.000661961
97 2 0 11.17 0 -205991 -205989 7857.41 -8.87781e-06 0.271947 -0.000368616
98 2 3.2245 11.17 2.279 29869.7 29871.8 -82132 9.48772e-05 0.366087 -3.35663e-05
99 2 1.61225 11.17 4.55799 43157 43159.1 13509.7 2.56125e-05 0.365678 -9.7964e-05
100 2 2.41837 12.5662 0 -205991 -205989 7857.41 7.27742e-06 0.272465 -8.35581e-05
101 2 0.806124 12.5662 2.279 29869.7 29871.8 -82132 1.91212e-05 0.365995 -5.82155e-05
102 2 4.03062 12.5662 4.55799 43157 43159.1 13509.7 -5.02269e-05 0.365256 -0.000427746
103 2 0 11.17 6.83699 43283.9 43286.2 15713.4 1.93884e-05 0.544118 -0.000313462
104 2 3.2245 11.17 9.11598 43284.3 43286.4 15716 0.000546625 0.366776 0.000446971
105 2 1.61225 11.17 11.395 43284.3 43286.4 15716 0.000699061 0.367034 0.000574798
106 2 2.41837 12.5662 6.83699 43283.9 43286.2 15713.4 -1.59585e-05 0.543522 -0.000363288
107 2 0.806124 12.5662 9.11598 43284.3 43286.4 15716 0.000130868 0.366164 -8.53125e-05
108 2 4.03062 12.5662 11.395 43284.2 43286.4 15716 -0.000228089 0.364943 -0.000755901
109 2 0 11.17 13.674 43283.9 43286.2 15714.9 0.000121811 0.54419 0.000991499
110 2 3.2245 11.17 15.953 43284.2 43286.4 15716 -0.00238552 0.363382 -0.0011757
111 2 1.61225 11.17 18.232 43284.2 43286.3 15714.5 -0.00295356 0.363695 -0.000993888
112 2 2.41837 12.5662 13.674 43283.9 43286.2 15714.8 -0.00146967 0.541254 -0.000658811
113 2 0.806124 12.5662 15.953 43284.2 43286.4 15716 -0.00138156 0.364134 -0.000656514
114 2 4.03062 12.5662 18.232 43284.2 43286.4 15714.6 0.0027296 0.369088 0.00198159
115 2 0 11.17 20.511 43156.6 43158.9 13508.6 -9.43751e-05 0.543744 -0.000735755
116 2 3.2245 11.17 22.79 29869.7 29871.8 -82132 0.00214026 0.366828 0.000499137
117 2 1.61225 11.17 25.069 -205991 -205989 7858.57 0.00286928 0.0953614 0.000542307
118 2 2.41837 12.5662 20.511 43156.7 43159 13508.6 0.00194447 0.546181 0.000948768
119 2 0.806124 12.5662 22.79 29869.7 29871.8 -82132 0.000146756 0.366118 6.71433e-05
120 2 4.03062 12.5662 25.069 -205991 -205989 7858.55 0.00223854 0.084878 -0.00542499
121 2 0 13.9625 0 -205991 -205989 7857.41 6.45416e-06 0.271923 2.75377e-05
122 2 3.2245 13.9625 2.279 29869.7 29871.8 -82132 -1.71367e-05 0.366068 -9.05458e-05
123 2 1.61225 13.9625 4.55799 43157 43159.1 13509.7 -8.94069e-05 0.365477 -0.000470205
124 2 2.41837 15.3587 0 -205991 -205989 7857.42 -9.86157e-05 0.272619 0.000274429
125 2 0.806124 15.3587 2.279 29869.7 29871.8 -82132 -4.85099e-06 0.365987 -4.97538e-05
126 2 4.03062 15.3587 4.55799 43157 43159.1 13509.7 -0.000143197 0.365427 -0.000440722
127 2 0 13.9625 6.83699 43283.9 43286.2 15713.4 -1.17776e-05 0.544023 -0.000722317
128 2 3.2245 13.9625 9.11598 43284.2 43286.4 15716 0.000856937 0.367567 0.000462444
129 2 1.61225 13.9625 11.395 43284.2 43286.4 15716 0.000522838 0.36669 0.000732882
130 2 2.41837 15.3587 6.83699 43283.9 43286.2 15713.4 0.000134874 0.544216 -0.00041407
131 2 0.806124 15.3587 9.11598 43284.3 43286.4 15716 0.000195961 0.366412 2.57838e-05
132 2 4.03062 15.3587 11.395 43284.2 43286.4 15716 -0.0012598 0.361587 -0.00173996
133 2 0 13.9625 13.674 43283.9 43286.2 15714.8 0.000406936 0.54493 0.000770138
134 2 3.2245 13.9625 15.953 43284.3 43286.4 15716 -0.000345899 0.365683 9.9234e-05
135 2 1.61225 13.9625 18.232 43284.2 43286.3 15714.6 -0.000373711 0.366438 -0.000188875
136 2 2.41837 15.3587 13.674 43283.9 43286.2 15714.8 -0.00217354 0.538593 -0.00102987
137 2 0.806124 15.3587 15.953 43284.2 43286.4 15716 -0.00136482 0.363868 -0.00132021
138 2 4.03062 15.3587 18.232 43284.2 43286.3 15714.5 0.0100702 0.379769 0.00601059
139 2 0 13.9625 20.511 43156.7 43159 13508.6 -0.000499997 0.543411 -2.6887e-05
140 2 3.2245 13.9625 22.79 29869.7 29871.8 -82132 0.00626484 0.365823 -0.000267829
141 2 1.61225 13.9625 25.069 -205991 -205989 7858.57 0.00667558 0.0928903 -5.35227e-05
142 2 2.41837 15.3587 20.511 43156.7 43159 13508.6 0.00580664 0.550438 0.00184529
143 2 0.806124 15.3587 22.79 29869.7 29871.8 -82131.9 -0.000268313 0.365826 -0.00010535
144 2 4.03062 15.3587 25.069 -205991 -205989 7858.56 -0.0218768 0.0826727 -0.00490115
145 2 0 16.755 0 -205991 -205989 7857.42 9.80692e-06 0.271924 0.00035394
146 2 3.2245 16.755 2.279 29869.7 29871.8 -82132 -8.5153e-05 0.365994 -8.33052e-05
147 2 1.61225 16.755 4.55799 43157 43159.1 13509.7 -0.000131839 0.365428 -0.000530202
148 2 2.41837 18.1512 0 -205991 -205989 7857.42 -0.000102926 0.272605 0.000338444
149 2 0.806124 18.1512 2.279 29869.7 29871.8 -82132 -1.45457e-05 0.365967 -1.96456e-05
150 2 4.03062 18.1512 4.55799 43157 43159.1 13509.7 -0.000120577 0.365718 -0.000261759
151 2 0 16.755 6.83699 43283.9 43286.2 15713.4 -1.7357e-05 0.543912 -0.000697375
152 2 3.2245 16.755 9.11598 43284.2 43286.4 15716 0.000591565 0.367699 0.000100009
153 2 1.61225 16.755 11.395 43284.2 43286.4 15716 1.75339e-05 0.365269 0.000329733
154 2 2.41837 18.1512 6.83699 43283.9 43286.2 15713.4 0.000115445 0.54489 -0.000275292
155 2 0.806124 18.1512 9.11598 43284.3 43286.4 15716 0.000136928 0.366544 2.24744e-05
156 2 4.03062 18.1512 11.395 43284.2 43286.4 15716 -0.000920686 0.360424 -0.00114022
157 2 0 16.755 13.674 43283.9 43286.2 15714.8 0.000341589 0.545564 -7.53796e-05
158 2 3.2245 16.755 15.953 43284.3 43286.4 15716 0.000193488 0.366541 0.000224123
159 2 1.61225 16.755 18.232 43284.2 43286.4 15714.6 0.000949759 0.368592 0.000357718
160 2 2.41837 18.1512 13.674 43283.9 43286.2 15714.9 -0.00116025 0.538688 -0.000545127
161 2 0.806124 18.1512 15.953 43284.2 43286.4 15716 -0.000533059 0.364886 -0.00073449
162 2 4.03062 18.1512 18.232 43284.2 43286.3 15714.5 0.0082465 0.383094 0.00422884
163 2 0 16.755 20.511 43156.7 43159 13508.6 -0.000102065 0.543807 8.26601e-05
164 2 3.2245 16.755 22.79 29869.6 29871.7 -82132 -0.00225583 0.354957 -0.00335917
165 2 1.61225 16.755 25.069 -205991 -205989 7858.56 0.00487655 0.0878706 -0.000805883
166 2 2.41837 18.1512 20.511 43156.6 43158.9 13508.6 0.00579037 0.553908 0.00141382
167 2 0.806124 18.1512 22.79 29869.7 29871.8 -82132 -7.97805e-05 0.36594 -2.90314e-05
168 2 4.03062 18.1512 25.069 -205991 -205989 7858.57 -0.0171419 0.0933912 -0.00056373
169 2 0 19.5475 0 -205991 -205989 7857.42 5.7317e-07 0.271929 0.000216745
170 2 3.2245 19.5475 2.279 29869.7 29871.8 -82132 -4.73371e-05 0.365935 -3.29563e-05
171 2 1.61225 19.5475 4.55799 43157 43159.1 13509.7 -6.77345e-05 0.365465 -0.000226706
172 2 2.41837 20.9437 0 -205991 -205989 7857.42 -1.2281e-05 0.272567 7.9824e-06
173 2 0.806124 20.9437 2.279 29869.7 29871.8 -82132 -4.15553e-06 0.365954 -3.24351e-06
174 2 4.03062 20.9437 4.55799 43157 43159.1 13509.7 1.6668e-06 0.365856 2.81606e-07
175 2 0 19.5475 6.83699 43283.9 43286.2 15713.4 -4.61407e-06 0.543865 -0.000286334
176 2 3.2245 19.5475 9.11598 43284.2 43286.4 15716 0.000148629 0.367345 -7.78208e-05
177 2 1.61225 19.5475 11.395 43284.2 43286.4 15716 -0.000140289 0.363895 -8.89389e-06
178 2 2.41837 20.9437 6.83699 43283.9 43286.2 15713.4 1.15079e-05 0.545163 1.21033e-05
179 2 0.806124 20.9437 9.11598 43284.3 43286.4 15716 2.35502e-05 0.366573 3.8212e-06
180 2 4.03062 20.9437 11.395 43284.2 43286.4 15716 -4.43225e-05 0.360618 -5.12277e-05
181 2 0 19.5475 13.674 43283.9 43286.2 15714.8 2.66009e-05 0.54577 -0.00022994
182 2 3.2245 19.5475 15.953 43284.3 43286.4 15716 0.000236291 0.36763 0.000209803
183 2 1.61225 19.5475 18.232 43284.2 43286.4 15714.6 0.00060781 0.369689 0.000248834
184 2 2.41837 20.9437 13.674 43283.9 43286.2 15714.9 -2.03034e-05 0.539318 4.58721e-07
185 2 0.806124 20.9437 15.953 43284.2 43286.4 15716 -2.88958e-05 0.365563 1.57454e-05
186 2 4.03062 20.9437 18.232 43284.2 43286.3 15714.5 -0.000994877 0.376563 -0.000600019
187 2 0 19.5475 20.511 43156.7 43159 13508.6 2.60273e-06 0.544057 -1.06358e-05
188 2 3.2245 19.5475 22.79 29869.6 29871.7 -82132 -0.00527435 0.346309 -0.00228748
189 2 1.61225 19.5475 25.069 -205991 -205989 7858.56 0.000914896 0.0838135 -0.00056657
190 2 2.41837 20.9437 20.511 43156.6 43158.9 13508.5 -0.00013289 0.553392 -0.000120378
191 2 0.806124 20.9437 22.79 29869.7 29871.8 -82132 1.68141e-05 0.365986 -4.88395e-07
192 2 4.03062 20.9437 25.069 -205991 -205989 7858.57 -0.00113905 0.0985596 0.000271893
193 2 0 22.34 0 -205991 -205989 7857.42 -9.69334e-06 0.271926 -0.000197832
194 2 3.2245 22.34 2.279 29869.7 29871.8 -82132 3.65006e-05 0.365935 2.10966e-05
195 2 1.61225 22.34 4.55799 43157 43159.1 13509.7 4.71482e-05 0.365473 0.000197141
196 2 2.41837 23.7362 0 -205991 -205989 7857.42 8.22102e-05 0.272596 -0.000328883
197 2 0.806124 23.7362 2.279 29869.7 29871.8 -82132 1.09482e-05 0.36596 1.12178e-05
198 2 4.03062 23.7362 4.55799 43157 43159.1 13509.7 0.000124773 0.365762 0.000254777
199 2 0 22.34 6.83699 43283.9 43286.2 15713.4 1.06365e-05 0.543897 0.000249769
200 2 3.2245 22.34 9.11598 43284.2 43286.4 15716 -0.000175143 0.367266 3.18227e-05
201 2 1.61225 22.34 11.395 43284.2 43286.4 15716 6.86382e-05 0.363774 -8.51029e-05
202 2 2.41837 23.7362 6.83699 43283.9 43286.2 15713.4 -9.09469e-05 0.544946 0.000295078
203 2 0.806124 23.7362 9.11598 43284.3 43286.4 15716 -8.87988e-05 0.366557 -1.19424e-05
204 2 4.03062 23.7362 11.395 43284.2 43286.4 15716 0.000762488 0.360806 0.000951662
205 2 0 22.34 13.674 43283.9 43286.2 15714.8 -0.000281056 0.545698 0.00022232
206 2 3.2245 22.34 15.953 43284.3 43286.4 15716 -0.000156352 0.368005 -0.000152676
207 2 1.61225 22.34 18.232 43284.2 43286.4 15714.6 -0.000401307 0.370077 -0.000125457
208 2 2.41837 23.7362 13.674 43283.9 43286.2 15714.9 0.00101339 0.539115 0.000446685
209 2 0.806124 23.7362 15.953 43284.2 43286.4 15716 0.000327262 0.365305 0.00071745
210 2 4.03062 23.7362 18.232 43284.2 43286.3 15714.5 -0.00797854 0.37901 -0.00416551
211 2 0 22.34 20.511 43156.7 43159 13508.6 -2.53107e-05 0.544078 1.46024e-05
212 2 3.2245 22.34 22.79 29869.6 29871.8 -82132 0.00169427 0.346799 0.00134259
213 2 1.61225 22.34 25.069 -205991 -205989 7858.56 -0.00104649 0.0836776 0.000285598
214 2 2.41837 23.7362 20.511 43156.6 43158.9 13508.6 -0.0055454 0.553233 -0.00133283
215 2 0.806124 23.7362 22.79 29869.7 29871.8 -82132 1.14607e-05 0.36597 6.29963e-06
216 2 4.03062 23.7362 25.069 -205991 -205989 7858.57 0.0122815 0.0958149 0.000652546
217 2 0 25.1325 0 -205991 -205989 7857.42 -8.74968e-06 0.271924 -0.000362705
218 2 3.2245 25.1325 2.279 29869.7 29871.8 -82132 8.09622e-05 0.365994 7.39554e-05
219 2 1.61225 25.1325 4.55799 43157 43159.1 13509.7 0.000127634 0.365443 0.000498068
220 2 2.41837 26.5287 0 -205991 -205989 7857.42 9.35432e-05 0.272622 -0.000277832
221 2 0.806124 26.5287 2.279 29869.7 29871.8 -82132 1.20783e-05 0.36598 4.07341e-05
222 2 4.03062 26.5287 4.55799 43157 43159.1 13509.7 0.000146347 0.36551 0.000415077
223 2 0 25.1325 6.83699 43283.9 43286.2 15713.4 1.4812e-05 0.543994 0.000667341
224 2 3.2245 25.1325 9.11598 43284.2 43286.4 15716 -0.000546812 0.367527 -5.85495e-05
225 2 1.61225 25.1325 11.395 43284.2 43286.4 15716 3.5139e-05 0.364952 -0.000333641
226 2 2.41837 26.5287 6.83699 43283.9 43286.2 15713.4 -0.000124422 0.54432 0.000411591
227 2 0.806124 26.5287 9.11598 43284.3 43286.4 15716 -0.00017478 0.366482 -1.53295e-05
228 2 4.03062 26.5287 11.395 43284.2 43286.4 15716 0.00108606 0.361818 0.00152868
229 2 0 25.1325 13.674 43283.9 43286.2 15714.8 -0.00043664 0.545244 0.000155098
230 2 3.2245 25.1325 15.953 43284.3 43286.4 15716 -0.000259034 0.36701 -0.000317641
231 2 1.61225 25.1325 18.232 43284.2 43286.4 15714.6 -0.00106007 0.369356 -0.000323568
232 2 2.41837 26.5287 13.674 43283.9 43286.2 15714.9 0.00188538 0.539073 0.000785523
233 2 0.806124 26.5287 15.953 43284.2 43286.4 15716 0.000993882 0.364257 0.00121001
234 2 4.03062 26.5287 18.232 43284.2 43286.3 15714.5 -0.00948766 0.378682 -0.00572201
235 2 0 25.1325 20.511 43156.7 43159 13508.6 7.13526e-05 0.543911 -5.51796e-05
236 2 3.2245 25.1325 22.79 29869.6 29871.8 -82132 0.00234474 0.354287 0.00294963
237 2 1.61225 25.1325 25.069 -205991 -205989 7858.56 -0.00399265 0.087144 0.000643531
238 2 2.41837 26.5287 20.511 43156.6 43158.9 13508.6 -0.00622235 0.551006 -0.00181303
239 2 0.806124 26.5287 22.79 29869.7 29871.8 -82132 0.000137573 0.365904 5.273e-05
240 2 4.03062 26.5287 25.069 -205991 -205989 7858.56 0.0190817 0.0873975 0.00338594
241 2 0 27.925 0 -205991 -205989 7857.41 6.22009e-06 0.271942 -6.13546e-05
242 2 3.2245 27.925 2.279 29869.7 29871.8 -82132 2.59597e-05 0.366071 9.15406e-05
243 2 1.61225 27.925 4.55799 43157 43159.1 13509.7 0.00010761 0.365472 0.000458214
244 2 2.41837 29.3212 0 -205991 -205989 7857.41 7.8114e-06 0.272499 7.3178e-05
245 2 0.806124 29.3212 2.279 29869.7 29871.8 -82132 -7.13353e-06 0.365996 5.73508e-05
246 2 4.03062 29.3212 4.55799 43157 43159.1 13509.7 4.95272e-05 0.365338 0.000400171
247 2 0 27.925 6.83699 43283.9 43286.2 15713.4 -8.20294e-06 0.544101 0.000729834
248 2 3.2245 27.925 9.11598 43284.2 43286.4 15716 -0.000800766 0.367462 -0.00037769
249 2 1.61225 27.925 11.395 43284.2 43286.4 15716 -0.000397499 0.366408 -0.000646374
250 2 2.41837 29.3212 6.83699 43283.9 43286.2 15713.4 -9.98947e-06 0.543624 0.000328087
251 2 0.806124 29.3212 9.11598 43284.3 43286.4 15716 -0.000178305 0.366296 8.043e-05
252 2 4.03062 29.3212 11.395 43284.2 43286.4 15716 0.000345927 0.364539 0.000898576
253 2 0 27.925 13.674 43283.9 43286.2 15714.8 -0.000228627 0.544405 -0.000697655
254 2 3.2245 27.925 15.953 43284.3 43286.4 15716 0.000161326 0.366071 -0.000235579
255 2 1.61225 27.925 18.232 43284.2 43286.3 15714.6 -0.000143854 0.367222 1.28277e-05
256 2 2.41837 29.3212 13.674 43283.9 43286.2 15714.9 0.0014808 0.541099 0.000632069
257 2 0.806124 29.3212 15.953 43284.2 43286.4 15716 0.00146861 0.36383 0.000620124
258 2 4.03062 29.3212 18.232 43284.2 43286.4 15714.6 -0.00382035 0.370442 -0.0027407
259 2 0 27.925 20.511 43156.7 43159 13508.6 0.000142613 0.543813 -1.76647e-05
260 2 3.2245 27.925 22.79 29869.7 29871.8 -82132 -0.00413978 0.364188 0.00084382
261 2 1.61225 27.925 25.069 -205991 -205989 7858.57 -0.00644729 0.091942 0.000228932
262 2 2.41837 29.3212 20.511 43156.7 43159 13508.6 -0.00270205 0.54691 -0.00118368
263 2 0.806124 29.3212 22.79 29869.7 29871.8 -82132 -0.000309507 0.366183 -7.56027e-05
264 2 4.03062 29.3212 25.069 -205991 -205989 7858.56 0.00384724 0.0857283 0.00483527
265 2 0 30.7174 0 -205991 -205989 7857.41 1.5271e-05 0.271984 0.000348607
266 2 3.2245 30.7174 2.279 29869.7 29871.8 -82132 -8.05735e-05 0.366096 4.80772e-05
267 2 1.61225 30.7174 4.55799 43157 43159.1 13509.7 6.01078e-07 0.365643 0.000127221
268 2 2.41837 32.1137 0 -205991 -205989 7857.42 -5.10521e-05 0.272206 0.000298848
269 2 0.806124 32.1137 2.279 29869.7 29871.8 -82132 -2.59036e-05 0.36599 6.03714e-05
270 2 4.03062 32.1137 4.55799 43157 43159.1 13509.7 -9.10376e-05 0.365468 0.000229467
271 2 0 30.7174 6.83699 43283.9 43286.2 15713.4 -3.53313e-05 0.544123 0.000364076
272 2 3.2245 30.7174 9.11598 43284.3 43286.4 15716 -0.000568369 0.366799 -0.000444425
273 2 1.61225 30.7174 11.395 43284.2 43286.4 15716 -0.000683489 0.367008 -0.000520914
274 2 2.41837 32.1137 6.83699 43283.9 43286.2 15713.4 0.00015204 0.543353 0.000133998
275 2 0.806124 32.1137 9.11598 43284.3 43286.4 15716 -5.49079e-05 0.366016 0.000220659
276 2 4.03062 32.1137 11.395 43284.2 43286.4 15716 -0.000593517 0.366759 -0.000304521
277 2 0 30.7174 13.674 43283.9 43286.2 15714.9 9.90223e-05 0.543857 -0.00104569
278 2 3.2245 30.7174 15.953 43284.3 43286.4 15716 0.0016453 0.364219 0.00067397
279 2 1.61225 30.7174 18.232 43284.2 43286.3 15714.5 0.00233196 0.364256 0.000583346
280 2 2.41837 32.1137 13.674 43283.9 43286.2 15714.9 -0.000202814 0.54406 5.11092e-05
281 2 0.806124 32.1137 15.953 43284.2 43286.4 15716 0.000715178 0.364979 -0.000440583
282 2 4.03062 32.1137 18.232 43284.2 43286.4 15714.6 -0.00046381 0.366723 -0.000713255
283 2 0 30.7174 20.511 43156.6 43158.9 13508.6 -0.000458918 0.544223 0.000744143
284 2 3.2245 30.7174 22.79 29869.7 29871.8 -82132 -0.00276523 0.366848 -0.000497528
285 2 1.61225 30.7174 25.069 -205991 -205989 7858.57 -0.00399628 0.0950059 -0.000247812
286 2 2.41837 32.1137 20.511 43156.6 43159 13508.6 0.000572871 0.54429 -0.00042892
287 2 0.806124 32.1137 22.79 29869.7 29871.8 -82132 3.69884e-05 0.366241 8.5942e-05
288 2 4.03062 32.1137 25.069 -205991 -205989 7858.56 -0.00657492 0.0919311 0.00142968
289 2 0 33.5099 0 -205991 -205989 7857.42 -1.99481e-06 0.272022 0.000406808
290 2 3.2245 33.5099 2.279 29869.7 29871.8 -82132 -0.00011136 0.366037 1.19614e-05
291 2 1.61225 33.5099 4.55799 43157 43159.1 13509.7 -9.77867e-05 0.365866 -0.000101787
292 2 2.41837 34.9062 0 -205991 -205989 7857.42 3.71372e-05 0.271915 0.000189926
293 2 0.806124 34.9062 2.279 29869.7 29871.8 -82132 -2.11631e-05 0.365964 8.83154e-05
294 2 4.03062 34.9062 4.55799 43157 43159.1 13509.7 -0.000162463 0.365767 6.17582e-05
295 2 0 33.5099 6.83699 43283.9 43286.2 15713.4 -2.12201e-05 0.544051 -0.000121692
296 2 3.2245 33.5099 9.11598 43284.3 43286.4 15716 -2.78182e-05 0.366039 -0.000162143
297 2 1.61225 33.5099 11.395 43284.2 43286.4 15716 -0.000452476 0.366666 -4.08108e-06
298 2 2.41837 34.9062 6.83699 43283.9 43286.2 15713.4 0.000130568 0.543646 -4.33256e-05
299 2 0.806124 34.9062 9.11598 43284.2 43286.4 15716 9.69703e-05 0.365814 0.000162851
300 2 4.03062 34.9062 11.395 43284.2 43286.4 15716 -0.000491159 0.366759 -0.000499739
301 2 0 33.5099 13.674 43283.9 43286.2 15714.9 0.000136218 0.543856 -0.000400767
302 2 3.2245 33.5099 15.953 43284.2 43286.4 15716 0.00129811 0.364489 0.00111601
303 2 1.61225 33.5099 18.232 43284.2 43286.3 15714.5 0.00206287 0.364186 0.00017808
304 2 2.41837 34.9062 13.674 43283.9 43286.2 15714.9 -0.000908827 0.544954 -0.000102389
305 2 0.806124 34.9062 15.953 43284.3 43286.4 15716 -0.000202053 0.365986 -0.000439176
306 2 4.03062 34.9062 18.232 43284.2 43286.3 15714.5 0.00159634 0.36488 0.000879725
307 2 0 33.5099 20.511 43156.6 43158.9 13508.6 -0.000326401 0.544222 0.000355243
308 2 3.2245 33.5099 22.79 29869.7 29871.8 -82132 -0.000276522 0.36625 -0.000272857
309 2 1.61225 33.5099 25.069 -205991 -205989 7858.57 0.000946212 0.0951013 -0.000115937
310 2 2.41837 34.9062 20.511 43156.6 43158.9 13508.6 0.00182653 0.543124 9.79026e-05
311 2 0.806124 34.9062 22.79 29869.7 29871.8 -82132 0.000602165 0.365884 8.94606e-05
312 2 4.03062 34.9062 25.069 -205991 -205989 7858.57 -0.00202619 0.0945009 -0.00070306
313 2 0 36.3024 0 -205991 -205989 7857.42 -2.91722e-05 0.272031 0.00010392
314 2 3.2245 36.3024 2.279 29869.7 29871.8 -82132 -3.5961e-05 0.36593 4.04332e-05
315 2 1.61225 36.3024 4.55799 43157 43159.1 13509.7 -0.000101123 0.365964 -6.72792e-06
316 2 2.41837 37.6987 0 -205991 -205989 7857.42 0.00018363 0.271806 -7.1045e-05
317 2 0.806124 37.6987 2.279 29869.7 29871.8 -82132 2.82082e-06 0.365933 0.000123113
318 2 4.03062 37.6987 4.55799 43157 43159.1 13509.7 -9.72828e-05 0.365885 3.8094e-05
319 2 0 36.3024 6.83699 43283.9 43286.2 15713.4 1.3485e-05 0.54399 -0.000275018
320 2 3.2245 36.3024 9.11598 43284.2 43286.4 15716 0.00028083 0.365718 0.00010925
321 2 1.61225 36.3024 11.395 43284.2 43286.4 15716 5.43892e-05 0.365996 0.00038093
322 2 2.41837 37.6987 6.83699 43283.9 43286.2 15713.4 -4.56393e-05 0.544038 -8.55282e-05
323 2 0.806124 37.6987 9.11598 43284.2 43286.4 15716 8.18213e-05 0.365841 -6.42431e-05
324 2 4.03062 37.6987 11.395 43284.2 43286.4 15716 3.54128e-05 0.36604 6.98899e-06
325 2 0 36.3024 13.674 43283.9 43286.2 15714.9 4.92506e-06 0.544011 0.000402458
326 2 3.2245 36.3024 15.953 43284.2 43286.4 15716 -0.000604078 0.366154 0.000122805
327 2 1.61225 36.3024 18.232 43284.2 43286.3 15714.5 -0.000231482 0.365816 -0.000389781
328 2 2.41837 37.6987 13.674 43283.9 43286.2 15714.9 -0.000291377 0.544292 0.000186067
329 2 0.806124 37.6987 15.953 43284.3 43286.4 15716 -0.000305019 0.366111 8.31819e-05
330 2 4.03062 37.6987 18.232 43284.2 43286.3 15714.5 0.000169271 0.36568 0.00034585
331 2 0 36.3024 20.511 43156.6 43158.9 13508.6 0.000130428 0.543984 -0.000530716
332 2 3.2245 36.3024 22.79 29869.7 29871.8 -82132 0.000616303 0.365889 -5.66986e-05
333 2 1.61225 36.3024 25.069 -205991 -205989 7858.56 0.00170426 0.0938568 0.000197627
334 2 2.41837 37.6987 20.511 43156.6 43158.9 13508.6 -1.87116e-05 0.543873 -0.000147994
335 2 0.806124 37.6987 22.79 29869.7 29871.8 -82132 8.68318e-05 0.365905 -0.000129341
336 2 4.03062 37.6987 25.069 -205991 -205989 7858.56 0.0012423 0.0940095 -0.000308638
337 2 0 39.0949 0 -205991 -205989 7857.42 -3.18795e-05 0.27202 -0.000191549
338 2 3.2245 39.0949 2.279 29869.7 29871.8 -82132 5.42983e-05 0.365837 8.30763e-05
339 2 1.61225 39.0949 4.55799 43157 43159.1 13509.7 -2.40767e-05 0.365897 0.00018736
340 2 2.41837 40.4912 0 -205991 -205989 7857.41 0.000186598 0.271871 -0.000175735
341 2 0.806124 40.4912 2.279 29869.7 29871.8 -82132 1.91089e-05 0.365914 9.59596e-05
342 2 4.03062 40.4912 4.55799 43157 43159.1 13509.7 6.64107e-06 0.365762 6.63855e-05
343 2 0 39.0949 6.83699 43283.9 43286.2 15713.4 2.01253e-05 0.543996 -8.33981e-05
344 2 3.2245 39.0949 9.11598 43284.2 43286.4 15716 8.37705e-05 0.365893 6.04156e-05
345 2 1.61225 39.0949 11.395 43284.2 43286.4 15716 0.000188185 0.365769 0.000228042
346 2 2.41837 40.4912 6.83699 43283.9 43286.2 15713.4 -0.000112305 0.544095 -3.09008e-05
347 2 0.806124 40.4912 9.11598 43284.2 43286.4 15716 -2.27501e-05 0.365937 -0.000127544
348 2 4.03062 40.4912 11.395 43284.2 43286.4 15716 0.000195409 0.365844 0.000277062
349 2 0 39.0949 13.674 43283.9 43286.2 15714.9 -5.08821e-05 0.544048 0.000523951
350 2 3.2245 39.0949 15.953 43284.2 43286.4 15716 -0.000425653 0.366185 -9.54514e-05
351 2 1.61225 39.0949 18.232 43284.2 43286.3 15714.5 -0.000547366 0.366211 -0.000196708
352 2 2.41837 40.4912 13.674 43283.9 43286.2 15714.9 0.000233911 0.543871 0.000299621
353 2 0.806124 40.4912 15.953 43284.2 43286.4 15716 1.2981e-05 0.365925 0.000286335
354 2 4.03062 40.4912 18.232 43284.2 43286.3 15714.5 -0.000498992 0.366167 -0.000321494
355 2 0 39.0949 20.511 43156.6 43159 13508.6 4.59379e-05 0.543976 -0.000387425