ITEM: TIMESTEP
0
ITEM: NUMBER OF ATOMS
3074
ITEM: BOX BOUNDS pp pp pp
0.0000000000000000e+00 3.8693948398131120e+01
0.0000000000000000e+00 4.4679925159782847e+01
0.0000000000000000e+00 6.0000000000000000e+01
ITEM: ATOMS id type x y z v_stress_xx v_stress_yy v_stress_zz v_stress_xy v_stress_xz v_stress_yz
1 2 0 0 0 2596.05 2596.03 -99.0249 -7.87553e-07 -0.003429 -2.0773e-06
2 2 3.2245 0 2.279 -1940.76 -1940.9 5336.46 5.97045e-06 -0.0237602 8.5943e-06
3 2 1.61225 0 4.55799 -2804.09 -2804.23 -877.784 -3.17652e-07 -0.0237658 2.11227e-05
4 2 2.41837 1.39625 0 2596.05 2596.03 -99.0249 6.28496e-06 -0.00342528 -1.39061e-06
5 2 0.806124 1.39625 2.279 -1940.76 -1940.9 5336.46 1.26028e-06 -0.0237765 1.91691e-05
6 2 4.03062 1.39625 4.55799 -2804.09 -2804.23 -877.784 -8.10934e-06 -0.0237602 1.38864e-05
7 2 0 0 6.83699 -2812.33 -2812.48 -1020.96 2.22369e-06 -0.0353448 1.90394e-06
8 2 3.2245 0 9.11598 -2812.36 -2812.5 -1021.14 -9.26906e-06 -0.023796 -7.37437e-06
9 2 1.61225 0 11.395 -2812.36 -2812.5 -1021.13 3.00994e-06 -0.0237768 -3.99969e-06
10 2 2.41837 1.39625 6.83699 -2812.33 -2812.48 -1020.96 -1.53999e-05 -0.0353551 -5.0014e-06
11 2 0.806124 1.39625 9.11598 -2812.36 -2812.5 -1021.14 -4.43888e-07 -0.0237737 -2.4324e-05
12 2 4.03062 1.39625 11.395 -2812.36 -2812.5 -1021.13 1.7179e-05 -0.0237735 1.45898e-05
13 2 0 0 13.674 -2812.34 -2812.49 -1021.06 -3.57495e-06 -0.0353474 1.33037e-05
14 2 3.2245 0 15.953 -2812.36 -2812.5 -1021.14 1.10324e-05 -0.0237663 8.27145e-06
15 2 1.61225 0 18.232 -2812.36 -2812.49 -1021.04 -5.0974e-07 -0.0237785 5.06177e-06
16 2 2.41837 1.39625 13.674 -2812.34 -2812.49 -1021.06 1.8974e-05 -0.0353368 2.33074e-05
17 2 0.806124 1.39625 15.953 -2812.36 -2812.5 -1021.14 -4.34035e-06 -0.0237783 2.78109e-05
18 2 4.03062 1.39625 18.232 -2812.36 -2812.49 -1021.04 -3.51364e-05 -0.0237938 -2.04299e-05
19 2 0 0 20.511 -2804.07 -2804.22 -877.708 -1.4394e-07 -0.0353468 -5.46029e-06
20 2 3.2245 0 22.79 -1940.76 -1940.9 5336.46 -1.66893e-05 -0.023784 -5.51047e-06
21 2 1.61225 0 25.069 1639.46 1639.45 -62.5456 -3.76797e-06 -0.000747111 -1.30356e-06
22 2 2.41837 1.39625 20.511 -2804.07 -2804.22 -877.708 -3.8717e-05 -0.0353638 -1.90857e-05
23 2 0.806124 1.39625 22.79 -1940.76 -1940.9 5336.46 -6.09231e-06 -0.0237793 -1.00933e-05
24 2 4.03062 1.39625 25.069 1639.46 1639.45 -62.5456 -9.74172e-07 -0.000745111 1.84129e-06
25 2 0 2.7925 0 2596.05 2596.03 -99.0249 -2.71943e-06 -0.00342876 -7.41092e-07
26 2 3.2245 2.7925 2.279 -1940.76 -1940.9 5336.46 5.54805e-06 -0.0237711 1.49425e-05
27 2 1.61225 2.7925 4.55799 -2804.09 -2804.23 -877.784 -4.90351e-06 -0.023777 3.15923e-05
28 2 2.41837 4.18874 0 2596.05 2596.03 -99.0249 4.99558e-06 -0.00342569 5.48658e-07
29 2 0.806124 4.18874 2.279 -1940.76 -1940.9 5336.46 -3.39911e-07 -0.0237773 1.87502e-05
30 2 4.03062 4.18874 4.55799 -2804.09 -2804.23 -877.784 -1.61792e-05 -0.0237817 1.40458e-05
31 2 0 2.7925 6.83699 -2812.33 -2812.48 -1020.96 7.9739e-06 -0.0353437 -1.15728e-05
32 2 3.2245 2.7925 9.11598 -2812.36 -2812.5 -1021.14 4.05469e-06 -0.0237719 -7.30595e-06
33 2 1.61225 2.7925 11.395 -2812.36 -2812.5 -1021.13 1.30863e-05 -0.0237647 7.75462e-06
34 2 2.41837 4.18874 6.83699 -2812.33 -2812.48 -1020.96 -6.90256e-06 -0.0353459 -9.04915e-06
35 2 0.806124 4.18874 9.11598 -2812.36 -2812.5 -1021.14 6.231e-06 -0.0237698 -1.57624e-05
36 2 4.03062 4.18874 11.395 -2812.36 -2812.5 -1021.14 2.47627e-06 -0.0237837 -8.37385e-06
37 2 0 2.7925 13.674 -2812.34 -2812.49 -1021.06 -1.0476e-05 -0.0353514 4.07632e-05
38 2 3.2245 2.7925 15.953 -2812.36 -2812.5 -1021.14 -3.55074e-05 -0.0237985 -2.79292e-06
39 2 1.61225 2.7925 18.232 -2812.36 -2812.5 -1021.04 -4.10915e-05 -0.0237956 -1.32478e-05
40 2 2.41837 4.18874 13.674 -2812.34 -2812.49 -1021.06 -2.63094e-05 -0.035372 1.44447e-05
41 2 0.806124 4.18874 15.953 -2812.36 -2812.5 -1021.14 -2.11123e-05 -0.0237871 5.20699e-06
42 2 4.03062 4.18874 18.232 -2812.36 -2812.49 -1021.04 9.94111e-06 -0.0237589 2.82905e-05
43 2 0 2.7925 20.511 -2804.07 -2804.22 -877.709 1.23508e-05 -0.0353407 -3.4481e-05
44 2 3.2245 2.7925 22.79 -1940.76 -1940.9 5336.46 2.95769e-06 -0.0237737 -6.07791e-07
45 2 1.61225 2.7925 25.069 1639.46 1639.45 -62.5456 -1.86449e-07 -0.000744605 3.24962e-07
46 2 2.41837 4.18874 20.511 -2804.07 -2804.22 -877.708 7.27493e-06 -0.0353317 -1.39954e-05
47 2 0.806124 4.18874 22.79 -1940.76 -1940.9 5336.46 1.15343e-05 -0.0237738 -9.31243e-06
48 2 4.03062 4.18874 25.069 1639.46 1639.45 -62.5457 1.15e-05 -0.000747947 -2.83297e-06
49 2 0 5.58499 0 2596.05 2596.03 -99.0249 -1.79744e-06 -0.00342828 2.93916e-06
50 2 3.2245 5.58499 2.279 -1940.76 -1940.9 5336.46 -2.78729e-06 -0.0237843 7.7515e-06
51 2 1.61225 5.58499 4.55799 -2804.09 -2804.23 -877.784 -7.99532e-06 -0.0237817 8.30913e-06
52 2 2.41837 6.98124 0 2596.05 2596.03 -99.0249 2.14427e-07 -0.00342845 3.38771e-06
53 2 0.806124 6.98124 2.279 -1940.76 -1940.9 5336.46 -1.39459e-06 -0.0237781 7.24496e-06
54 2 4.03062 6.98124 4.55799 -2804.09 -2804.23 -877.784 -1.46267e-05 -0.0237768 8.75108e-06
55 2 0 5.58499 6.83699 -2812.33 -2812.48 -1020.96 3.71891e-06 -0.0353471 -2.02752e-05
56 2 3.2245 5.58499 9.11598 -2812.36 -2812.5 -1021.14 1.90563e-05 -0.0237546 -4.67356e-07
57 2 1.61225 5.58499 11.395 -2812.36 -2812.5 -1021.14 -2.11171e-06 -0.0237855 2.28511e-05
58 2 2.41837 6.98124 6.83699 -2812.33 -2812.48 -1020.96 1.00091e-05 -0.0353161 -4.4407e-06
59 2 0.806124 6.98124 9.11598 -2812.36 -2812.5 -1021.14 2.70888e-06 -0.0237735 1.14237e-05
60 2 4.03062 6.98124 11.395 -2812.36 -2812.5 -1021.14 -3.78557e-05 -0.0238368 -3.70944e-05
61 2 0 5.58499 13.674 -2812.34 -2812.49 -1021.06 5.705e-06 -0.0353409 2.14227e-05
62 2 3.2245 5.58499 15.953 -2812.36 -2812.5 -1021.13 -4.49794e-05 -0.0237936 1.35087e-05
63 2 1.61225 5.58499 18.232 -2812.36 -2812.49 -1021.04 -4.20669e-07 -0.023759 -3.21849e-05
64 2 2.41837 6.98124 13.674 -2812.34 -2812.49 -1021.06 -6.35318e-05 -0.0354136 -5.58156e-06
65 2 0.806124 6.98124 15.953 -2812.36 -2812.5 -1021.14 1.32662e-06 -0.0237691 -3.86401e-05
66 2 4.03062 6.98124 18.232 -2812.36 -2812.49 -1021.04 0.000101577 -0.0237028 5.15526e-05
67 2 0 5.58499 20.511 -2804.07 -2804.22 -877.708 7.76827e-06 -0.0353483 -3.69884e-05
68 2 3.2245 5.58499 22.79 -1940.76 -1940.9 5336.46 4.45349e-05 -0.023772 -5.72237e-06
69 2 1.61225 5.58499 25.069 1639.46 1639.45 -62.5456 1.54813e-05 -0.000747797 2.59924e-06
70 2 2.41837 6.98124 20.511 -2804.07 -2804.22 -877.708 0.000136542 -0.0352802 -8.38408e-08
71 2 0.806124 6.98124 22.79 -1940.76 -1940.9 5336.46 2.92296e-05 -0.0237773 8.05905e-06
72 2 4.03062 6.98124 25.069 1639.46 1639.45 -62.5457 -1.71551e-05 -0.0007526 -5.27966e-06
73 2 0 8.37749 0 2596.05 2596.03 -99.0249 5.17895e-07 -0.00342746 5.786e-06
74 2 3.2245 8.37749 2.279 -1940.76 -1940.9 5336.46 -9.21071e-06 -0.0237925 -3.72955e-07
75 2 1.61225 8.37749 4.55799 -2804.09 -2804.23 -877.783 -5.36399e-06 -0.0237722 -1.14564e-05
76 2 2.41837 9.77373 0 2596.05 2596.03 -99.0249 -2.44834e-06 -0.00343271 4.12765e-06
77 2 0.806124 9.77373 2.279 -1940.76 -1940.9 5336.46 -7.54548e-07 -0.0237789 -1.17429e-06
78 2 4.03062 9.77373 4.55799 -2804.09 -2804.23 -877.783 -5.89545e-06 -0.0237518 1.13013e-05
79 2 0 8.37749 6.83699 -2812.33 -2812.48 -1020.96 -5.05952e-06 -0.0353576 -4.15181e-06
80 2 3.2245 8.37749 9.11598 -2812.36 -2812.5 -1021.14 -4.16116e-06 -0.0237821 -1.30867e-05
81 2 1.61225 8.37749 11.395 -2812.36 -2812.5 -1021.14 -3.23482e-05 -0.0238277 -1.65482e-06
82 2 2.41837 9.77373 6.83699 -2812.33 -2812.48 -1020.96 9.89878e-06 -0.0353009 8.33897e-06
83 2 0.806124 9.77373 9.11598 -2812.36 -2812.5 -1021.14 -6.92839e-06 -0.0237861 1.59492e-05
84 2 4.03062 9.77373 11.395 -2812.36 -2812.5 -1021.13 -4.21321e-05 -0.0238383 -1.61955e-05
85 2 0 8.37749 13.674 -2812.34 -2812.49 -1021.06 2.40607e-05 -0.0353208 -3.84945e-05
86 2 3.2245 8.37749 15.953 -2812.36 -2812.5 -1021.13 9.13732e-05 -0.0236721 7.03613e-05
87 2 1.61225 8.37749 18.232 -2812.36 -2812.49 -1021.04 0.000142758 -0.0236574 8.88611e-06
88 2 2.41837 9.77373 13.674 -2812.34 -2812.49 -1021.06 -2.64585e-06 -0.0353402 -1.27715e-06
89 2 0.806124 9.77373 15.953 -2812.36 -2812.5 -1021.13 5.21205e-05 -0.0237119 -2.57481e-05
90 2 4.03062 9.77373 18.232 -2812.36 -2812.5 -1021.04 -3.20419e-05 -0.0238274 -5.91133e-05
91 2 0 8.37749 20.511 -2804.07 -2804.22 -877.708 -6.35573e-05 -0.035382 3.53843e-05
92 2 3.2245 8.37749 22.79 -1940.76 -1940.9 5336.46 -2.26042e-05 -0.0238007 -2.09873e-05
93 2 1.61225 8.37749 25.069 1639.46 1639.45 -62.5457 2.53838e-06 -0.000757583 -3.6417e-07
94 2 2.41837 9.77373 20.511 -2804.07 -2804.22 -877.709 2.46595e-05 -0.0353756 -3.26038e-05
95 2 0.806124 9.77373 22.79 -1940.76 -1940.9 5336.46 -1.50833e-05 -0.0237956 4.01928e-06
96 2 4.03062 9.77373 25.069 1639.46 1639.45 -62.5456 -4.91175e-05 -0.000732067 1.32772e-05
97 2 0 11.17 0 2596.05 2596.03 -99.0249 1.73341e-06 -0.00342632 3.63583e-06
98 2 3.2245 11.17 2.279 -1940.76 -1940.9 5336.46 -6.58464e-06 -0.0237936 -1.04502e-06
99 2 1.61225 11.17 4.55799 -2804.09 -2804.23 -877.783 1.58637e-06 -0.0237574 2.08787e-06
100 2 2.41837 12.5662 0 2596.05 2596.03 -99.0249 -1.36059e-06 -0.00343588 -1.32704e-07
101 2 0.806124 12.5662 2.279 -1940.76 -1940.9 5336.46 6.9632e-07 -0.023779 -2.22634e-06
102 2 4.03062 12.5662 4.55799 -2804.09 -2804.23 -877.783 5.72447e-06 -0.023739 2.29371e-05
103 2 0 11.17 6.83699 -2812.33 -2812.48 -1020.96 -6.29571e-06 -0.0353649 2.83278e-05
104 2 3.2245 11.17 9.11598 -2812.36 -2812.5 -1021.14 -4.19336e-05 -0.0238386 -2.71745e-05
105 2 1.61225 11.17 11.395 -2812.36 -2812.5 -1021.14 -3.77039e-05 -0.0238373 -3.98035e-05
106 2 2.41837 12.5662 6.83699 -2812.33 -2812.48 -1020.96 -2.37635e-06 -0.0353245 2.62808e-05
107 2 0.806124 12.5662 9.11598 -2812.36 -2812.5 -1021.14 -9.49312e-06 -0.0237962 4.55931e-06
108 2 4.03062 12.5662 11.395 -2812.36 -2812.5 -1021.13 1.28057e-05 -0.0237036 4.98385e-05
109 2 0 11.17 13.674 -2812.34 -2812.49 -1021.06 8.03362e-06 -0.0353351 -6.92653e-05
110 2 3.2245 11.17 15.953 -2812.36 -2812.5 -1021.14 0.00011842 -0.0236464 3.77006e-05
111 2 1.61225 11.17 18.232 -2812.36 -2812.49 -1021.04 0.000113884 -0.0236958 4.39181e-05
112 2 2.41837 12.5662 13.674 -2812.34 -2812.49 -1021.06 9.78621e-05 -0.0351526 2.46534e-05
113 2 0.806124 12.5662 15.953 -2812.36 -2812.5 -1021.13 5.35742e-05 -0.0236918 5.49174e-05
114 2 4.03062 12.5662 18.232 -2812.36 -2812.5 -1021.04 -0.000256868 -0.0240979 -0.000195016
115 2 0 11.17 20.511 -2804.07 -2804.22 -877.709 -4.0873e-05 -0.0353577 3.71906e-05
116 2 3.2245 11.17 22.79 -1940.76 -1940.9 5336.46 -0.000183126 -0.0238404 -2.7704e-05
117 2 1.61225 11.17 25.069 1639.46 1639.45 -62.5457 -3.52624e-05 -0.000753525 -2.11192e-06
118 2 2.41837 12.5662 20.511 -2804.07 -2804.22 -877.709 -0.000209744 -0.0355714 -7.6024e-05
119 2 0.806124 12.5662 22.79 -1940.76 -1940.9 5336.46 -1.55739e-05 -0.0237873 -5.76724e-06
120 2 4.03062 12.5662 25.069 1639.46 1639.45 -62.5456 3.52427e-05 -0.00069069 3.38042e-05
121 2 0 13.9625 0 2596.05 2596.03 -99.0249 1.113e-06 -0.00342552 -3.4044e-06
122 2 3.2245 13.9625 2.279 -1940.76 -1940.9 5336.46 2.15822e-06 -0.0237883 2.09098e-06
123 2 1.61225 13.9625 4.55799 -2804.09 -2804.23 -877.783 7.8476e-06 -0.0237501 3.10774e-05
124 2 2.41837 15.3587 0 2596.05 2596.03 -99.0249 5.55067e-07 -0.00343614 -6.19936e-06
125 2 0.806124 15.3587 2.279 -1940.76 -1940.9 5336.46 1.04483e-06 -0.0237783 -1.40145e-06
126 2 4.03062 15.3587 4.55799 -2804.09 -2804.23 -877.784 1.45663e-05 -0.0237494 3.00694e-05
127 2 0 13.9625 6.83699 -2812.33 -2812.48 -1020.96 -1.05023e-06 -0.0353583 5.27848e-05
128 2 3.2245 13.9625 9.11598 -2812.36 -2812.5 -1021.14 -5.44033e-05 -0.0238811 -1.76924e-05
129 2 1.61225 13.9625 11.395 -2812.36 -2812.5 -1021.13 -1.57702e-05 -0.0237886 -4.89883e-05
130 2 2.41837 15.3587 6.83699 -2812.33 -2812.48 -1020.96 -7.59439e-06 -0.0353716 3.87566e-05
131 2 0.806124 15.3587 9.11598 -2812.36 -2812.5 -1021.14 -5.31392e-06 -0.0237993 1.50962e-06
132 2 4.03062 15.3587 11.395 -2812.36 -2812.5 -1021.13 5.14355e-05 -0.0235407 7.81695e-05
133 2 0 13.9625 13.674 -2812.34 -2812.49 -1021.06 -3.74827e-05 -0.0354187 -2.66432e-05
134 2 3.2245 13.9625 15.953 -2812.36 -2812.5 -1021.14 2.04537e-05 -0.0237815 -2.41918e-05
135 2 1.61225 13.9625 18.232 -2812.36 -2812.5 -1021.04 -3.5786e-05 -0.0238858 9.94218e-06
136 2 2.41837 15.3587 13.674 -2812.34 -2812.49 -1021.06 0.000110479 -0.0350312 3.51171e-05
137 2 0.806124 15.3587 15.953 -2812.36 -2812.5 -1021.13 1.68219e-05 -0.0237419 7.84928e-05
138 2 4.03062 15.3587 18.232 -2812.36 -2812.49 -1021.04 -0.000482469 -0.0244998 -0.000295275
139 2 0 13.9625 20.511 -2804.07 -2804.22 -877.71 3.40512e-05 -0.035303 -1.49096e-05
140 2 3.2245 13.9625 22.79 -1940.76 -1940.89 5336.46 -0.000197092 -0.02369 4.91721e-05
141 2 1.61225 13.9625 25.069 1639.46 1639.45 -62.5457 -4.11437e-05 -0.000729091 8.92288e-07
142 2 2.41837 15.3587 20.511 -2804.07 -2804.22 -877.708 -0.000345075 -0.0357661 -9.22771e-05
143 2 0.806124 15.3587 22.79 -1940.76 -1940.9 5336.46 -1.19145e-06 -0.0237794 -1.06441e-06
144 2 4.03062 15.3587 25.069 1639.47 1639.45 -62.5456 0.000115404 -0.000705166 2.01742e-05
145 2 0 16.755 0 2596.05 2596.03 -99.0249 7.50155e-08 -0.00342562 -7.6468e-06
146 2 3.2245 16.755 2.279 -1940.76 -1940.9 5336.46 6.08728e-06 -0.0237807 2.07468e-06
147 2 1.61225 16.755 4.55799 -2804.09 -2804.23 -877.783 7.9407e-06 -0.0237514 3.68367e-05
148 2 2.41837 18.1512 0 2596.05 2596.03 -99.0249 7.56747e-07 -0.00343474 -6.22901e-06
149 2 0.806124 18.1512 2.279 -1940.76 -1940.9 5336.46 1.80762e-07 -0.0237779 -1.24496e-06
150 2 4.03062 18.1512 4.55799 -2804.09 -2804.23 -877.784 1.18833e-05 -0.0237653 2.03031e-05
151 2 0 16.755 6.83699 -2812.33 -2812.48 -1020.96 1.81298e-06 -0.0353421 4.89914e-05
152 2 3.2245 16.755 9.11598 -2812.36 -2812.5 -1021.13 -3.53392e-05 -0.0238869 3.64786e-06
153 2 1.61225 16.755 11.395 -2812.36 -2812.5 -1021.13 4.48042e-06 -0.0237073 -2.55223e-05
154 2 2.41837 18.1512 6.83699 -2812.33 -2812.48 -1020.96 -3.79821e-06 -0.0354095 2.89424e-05
155 2 0.806124 18.1512 9.11598 -2812.36 -2812.5 -1021.14 -3.82871e-07 -0.0237987 3.95136e-06
156 2 4.03062 18.1512 11.395 -2812.36 -2812.5 -1021.13 3.53044e-05 -0.0234594 4.71903e-05
157 2 0 16.755 13.674 -2812.33 -2812.49 -1021.06 -5.2382e-05 -0.0355105 2.23157e-05
158 2 3.2245 16.755 15.953 -2812.36 -2812.5 -1021.14 -2.56569e-05 -0.0239147 -3.63948e-05
159 2 1.61225 16.755 18.232 -2812.36 -2812.5 -1021.04 -6.44273e-05 -0.0239993 -1.37549e-05
160 2 2.41837 18.1512 13.674 -2812.34 -2812.49 -1021.06 5.57811e-05 -0.035016 2.29233e-05
161 2 0.806124 18.1512 15.953 -2812.36 -2812.5 -1021.13 1.73291e-06 -0.0237763 3.99537e-05
162 2 4.03062 18.1512 18.232 -2812.36 -2812.49 -1021.04 -0.000369417 -0.024558 -0.000192607
163 2 0 16.755 20.511 -2804.07 -2804.22 -877.711 3.75245e-05 -0.0352897 -1.96929e-05
164 2 3.2245 16.755 22.79 -1940.75 -1940.89 5336.46 6.37945e-05 -0.0232662 0.000112465
165 2 1.61225 16.755 25.069 1639.46 1639.45 -62.5456 -1.77872e-05 -0.000699611 3.03938e-06
166 2 2.41837 18.1512 20.511 -2804.07 -2804.22 -877.707 -0.000236715 -0.035825 -6.19399e-05
167 2 0.806124 18.1512 22.79 -1940.76 -1940.9 5336.46 -6.03236e-07 -0.0237781 -3.95648e-06
168 2 4.03062 18.1512 25.069 1639.47 1639.45 -62.5457 6.43764e-05 -0.000753285 4.93641e-06
169 2 0 19.5475 0 2596.05 2596.03 -99.0249 -2.04633e-07 -0.00342616 -3.17466e-06
170 2 3.2245 19.5475 2.279 -1940.76 -1940.9 5336.46 2.01631e-06 -0.023776 5.15102e-09
171 2 1.61225 19.5475 4.55799 -2804.09 -2804.23 -877.783 1.54215e-06 -0.0237538 1.24234e-05
172 2 2.41837 20.9437 0 2596.05 2596.03 -99.0249 -4.50706e-07 -0.00343421 9.26885e-07
173 2 0.806124 20.9437 2.279 -1940.76 -1940.9 5336.46 -6.76859e-07 -0.0237782 -3.52383e-07
174 2 4.03062 20.9437 4.55799 -2804.09 -2804.23 -877.784 -1.36118e-06 -0.0237695 -2.50302e-06
175 2 0 19.5475 6.83699 -2812.33 -2812.48 -1020.96 9.50642e-07 -0.035329 1.56598e-05
176 2 3.2245 19.5475 9.11598 -2812.36 -2812.5 -1021.13 -1.08559e-05 -0.023879 3.22901e-06
177 2 1.61225 19.5475 11.395 -2812.36 -2812.5 -1021.13 5.15332e-07 -0.0236576 -7.63873e-06
178 2 2.41837 20.9437 6.83699 -2812.33 -2812.48 -1020.96 1.77674e-06 -0.0354187 -1.70371e-06
179 2 0.806124 20.9437 9.11598 -2812.36 -2812.5 -1021.14 3.71131e-06 -0.0237982 1.23678e-07
180 2 4.03062 20.9437 11.395 -2812.36 -2812.5 -1021.13 -1.16254e-05 -0.0234274 -1.39071e-05
181 2 0 19.5475 13.674 -2812.33 -2812.49 -1021.06 -2.74115e-05 -0.0355494 1.31071e-05
182 2 3.2245 19.5475 15.953 -2812.36 -2812.5 -1021.14 -4.63344e-06 -0.0240033 -6.46727e-06
183 2 1.61225 19.5475 18.232 -2812.36 -2812.5 -1021.04 -9.65303e-06 -0.0240221 -1.58449e-06
184 2 2.41837 20.9437 13.674 -2812.34 -2812.49 -1021.06 -1.23765e-05 -0.0350077 -4.45608e-06
185 2 0.806124 20.9437 15.953 -2812.36 -2812.5 -1021.13 -6.04418e-06 -0.0237647 -4.57988e-06
186 2 4.03062 20.9437 18.232 -2812.36 -2812.49 -1021.04 -6.91682e-06 -0.0246234 -1.06171e-05
187 2 0 19.5475 20.511 -2804.07 -2804.22 -877.711 2.17591e-05 -0.0352757 -7.27771e-06
188 2 3.2245 19.5475 22.79 -1940.75 -1940.89 5336.46 -3.05619e-05 -0.0229767 1.97223e-05
189 2 1.61225 19.5475 25.069 1639.46 1639.45 -62.5456 -3.33436e-06 -0.000683025 2.85605e-07
190 2 2.41837 20.9437 20.511 -2804.07 -2804.22 -877.707 3.96877e-05 -0.0358421 1.75502e-06
191 2 0.806124 20.9437 22.79 -1940.76 -1940.9 5336.46 6.19241e-06 -0.0237787 7.79636e-07
192 2 4.03062 20.9437 25.069 1639.47 1639.45 -62.5457 -2.89593e-05 -0.000760366 3.00324e-06
193 2 0 22.34 0 2596.05 2596.03 -99.0249 8.71545e-08 -0.00342631 5.06515e-06
194 2 3.2245 22.34 2.279 -1940.76 -1940.9 5336.46 -4.5362e-06 -0.0237766 -2.17496e-06
195 2 1.61225 22.34 4.55799 -2804.09 -2804.23 -877.783 -6.00183e-06 -0.0237525 -2.27095e-05
196 2 2.41837 23.7362 0 2596.05 2596.03 -99.0249 -1.40344e-06 -0.00343529 7.0206e-06
197 2 0.806124 23.7362 2.279 -1940.76 -1940.9 5336.46 -7.38573e-07 -0.0237791 -2.4447e-07
198 2 4.03062 23.7362 4.55799 -2804.09 -2804.23 -877.784 -1.29193e-05 -0.023757 -2.55928e-05
199 2 0 22.34 6.83699 -2812.33 -2812.48 -1020.96 -6.02318e-07 -0.0353261 -2.87593e-05
200 2 3.2245 22.34 9.11598 -2812.36 -2812.5 -1021.13 1.40339e-05 -0.0238897 -8.59894e-06
201 2 1.61225 22.34 11.395 -2812.36 -2812.5 -1021.13 -8.66499e-06 -0.0236805 1.51402e-06
202 2 2.41837 23.7362 6.83699 -2812.33 -2812.48 -1020.96 7.78793e-06 -0.0353958 -3.13473e-05
203 2 0.806124 23.7362 9.11598 -2812.36 -2812.5 -1021.14 7.89533e-06 -0.0237964 -2.8171e-06
204 2 4.03062 23.7362 11.395 -2812.36 -2812.5 -1021.13 -5.99817e-05 -0.0234324 -7.91661e-05
205 2 0 22.34 13.674 -2812.33 -2812.49 -1021.06 1.01197e-05 -0.0355526 -1.64272e-05
206 2 3.2245 22.34 15.953 -2812.36 -2812.5 -1021.14 3.56797e-05 -0.023958 3.27399e-05
207 2 1.61225 22.34 18.232 -2812.36 -2812.5 -1021.04 4.81221e-05 -0.0239842 1.99381e-05
208 2 2.41837 23.7362 13.674 -2812.34 -2812.49 -1021.06 -8.97116e-05 -0.034974 -4.046e-05
209 2 0.806124 23.7362 15.953 -2812.36 -2812.5 -1021.13 -3.10362e-05 -0.0237254 -5.21824e-05
210 2 4.03062 23.7362 18.232 -2812.36 -2812.49 -1021.04 0.00048275 -0.0248774 0.000256423
211 2 0 22.34 20.511 -2804.07 -2804.22 -877.711 -9.75723e-06 -0.0352705 1.30412e-05
212 2 3.2245 22.34 22.79 -1940.75 -1940.89 5336.46 -0.000268056 -0.0230035 -0.000125798
213 2 1.61225 22.34 25.069 1639.46 1639.45 -62.5456 8.01966e-06 -0.000688638 -4.60391e-06
214 2 2.41837 23.7362 20.511 -2804.07 -2804.22 -877.708 0.000311778 -0.0358559 8.46544e-05
215 2 0.806124 23.7362 22.79 -1940.76 -1940.9 5336.46 4.11576e-06 -0.0237804 2.25305e-06
216 2 4.03062 23.7362 25.069 1639.47 1639.45 -62.5456 -0.000139852 -0.000704952 -8.77403e-06
217 2 0 25.1325 0 2596.05 2596.03 -99.0249 1.64319e-07 -0.00342585 7.11191e-06
218 2 3.2245 25.1325 2.279 -1940.76 -1940.9 5336.46 -6.41823e-06 -0.0237819 -4.14544e-06
219 2 1.61225 25.1325 4.55799 -2804.09 -2804.23 -877.783 -8.56362e-06 -0.0237492 -4.39237e-05
220 2 2.41837 26.5287 0 2596.05 2596.03 -99.0249 -3.74418e-07 -0.00343618 5.10508e-06
221 2 0.806124 26.5287 2.279 -1940.76 -1940.9 5336.46 2.71137e-07 -0.0237799 -5.99855e-07
222 2 4.03062 26.5287 4.55799 -2804.09 -2804.23 -877.783 -1.23868e-05 -0.0237354 -3.48104e-05
223 2 0 25.1325 6.83699 -2812.33 -2812.48 -1020.96 -1.91518e-06 -0.035335 -5.704e-05
224 2 3.2245 25.1325 9.11598 -2812.36 -2812.5 -1021.13 4.78439e-05 -0.0239057 5.8262e-06
225 2 1.61225 25.1325 11.395 -2812.36 -2812.5 -1021.13 7.33379e-06 -0.0237621 3.30369e-05
226 2 2.41837 26.5287 6.83699 -2812.33 -2812.48 -1020.96 8.62056e-06 -0.0353482 -3.94505e-05
227 2 0.806124 26.5287 9.11598 -2812.36 -2812.5 -1021.14 8.35458e-06 -0.023789 -8.28911e-07
228 2 4.03062 26.5287 11.395 -2812.36 -2812.5 -1021.13 -5.94831e-05 -0.0235607 -9.32076e-05
229 2 0 25.1325 13.674 -2812.34 -2812.49 -1021.06 4.43031e-05 -0.0355264 -1.94759e-06
230 2 3.2245 25.1325 15.953 -2812.36 -2812.5 -1021.14 2.12815e-05 -0.0238386 3.44813e-05
231 2 1.61225 25.1325 18.232 -2812.36 -2812.5 -1021.04 5.19045e-05 -0.0239059 1.68832e-05
232 2 2.41837 26.5287 13.674 -2812.34 -2812.49 -1021.06 -0.000139249 -0.0350209 -5.65358e-05
233 2 0.806124 26.5287 15.953 -2812.36 -2812.5 -1021.13 -6.07841e-05 -0.0236998 -8.47749e-05
234 2 4.03062 26.5287 18.232 -2812.36 -2812.5 -1021.04 0.000476207 -0.0244456 0.000296717
235 2 0 25.1325 20.511 -2804.07 -2804.22 -877.71 -4.73306e-05 -0.0352603 2.21315e-05
236 2 3.2245 25.1325 22.79 -1940.76 -1940.89 5336.46 5.78938e-05 -0.0234653 -0.000120112
237 2 1.61225 25.1325 25.069 1639.46 1639.45 -62.5457 3.62841e-05 -0.000716944 -4.4375e-06
238 2 2.41837 26.5287 20.511 -2804.07 -2804.22 -877.709 0.000286311 -0.0356632 9.68531e-05
239 2 0.806124 26.5287 22.79 -1940.76 -1940.9 5336.46 -2.38318e-07 -0.0237788 -1.85789e-07
240 2 4.03062 26.5287 25.069 1639.47 1639.45 -62.5456 -0.000113596 -0.000646399 -4.27131e-05
241 2 0 27.925 0 2596.05 2596.03 -99.0249 -5.69548e-07 -0.00342544 9.2421e-07
242 2 3.2245 27.925 2.279 -1940.76 -1940.9 5336.46 8.98222e-07 -0.0237886 -2.04827e-06
243 2 1.61225 27.925 4.55799 -2804.09 -2804.23 -877.783 -3.85869e-06 -0.0237521 -2.83461e-05
244 2 2.41837 29.3212 0 2596.05 2596.03 -99.0249 2.19341e-06 -0.0034344 -1.33788e-06
245 2 0.806124 29.3212 2.279 -1940.76 -1940.9 5336.46 1.33854e-06 -0.0237795 1.95954e-06
246 2 4.03062 29.3212 4.55799 -2804.09 -2804.23 -877.783 -2.40304e-06 -0.0237294 -2.35779e-05
247 2 0 27.925 6.83699 -2812.33 -2812.48 -1020.96 -7.87976e-07 -0.0353517 -4.78994e-05
248 2 3.2245 27.925 9.11598 -2812.36 -2812.5 -1021.14 6.08253e-05 -0.0238834 3.10075e-05
249 2 1.61225 27.925 11.395 -2812.36 -2812.5 -1021.14 3.54067e-05 -0.0238319 5.93199e-05
250 2 2.41837 29.3212 6.83699 -2812.33 -2812.48 -1020.96 -3.6335e-06 -0.035306 -2.62824e-05
251 2 0.806124 29.3212 9.11598 -2812.36 -2812.5 -1021.14 2.16818e-06 -0.0237776 -7.47128e-06
252 2 4.03062 29.3212 11.395 -2812.36 -2812.5 -1021.13 1.76437e-05 -0.0237897 -1.40535e-05
253 2 0 27.925 13.674 -2812.34 -2812.49 -1021.06 4.68463e-05 -0.0354505 4.77898e-05
254 2 3.2245 27.925 15.953 -2812.36 -2812.5 -1021.14 -8.37692e-05 -0.0236749 -1.57098e-05
255 2 1.61225 27.925 18.232 -2812.36 -2812.5 -1021.04 -6.06334e-05 -0.0237542 -4.08983e-05
256 2 2.41837 29.3212 13.674 -2812.34 -2812.49 -1021.06 -6.59428e-05 -0.0352318 -1.40596e-05
257 2 0.806124 29.3212 15.953 -2812.36 -2812.5 -1021.13 -3.51448e-05 -0.0237388 -3.51212e-05
258 2 4.03062 29.3212 18.232 -2812.36 -2812.5 -1021.04 0.000117939 -0.0239191 0.000102527
259 2 0 27.925 20.511 -2804.07 -2804.22 -877.709 -7.7619e-05 -0.03525 2.65375e-06
260 2 3.2245 27.925 22.79 -1940.76 -1940.9 5336.46 0.000349102 -0.0238612 2.21032e-05
261 2 1.61225 27.925 25.069 1639.46 1639.45 -62.5457 4.3039e-05 -0.000747536 2.21516e-06
262 2 2.41837 29.3212 20.511 -2804.07 -2804.22 -877.71 8.21284e-05 -0.0354576 4.83482e-05
263 2 0.806124 29.3212 22.79 -1940.76 -1940.9 5336.46 -2.95376e-06 -0.0237824 5.80078e-06
264 2 4.03062 29.3212 25.069 1639.46 1639.45 -62.5456 6.61425e-05 -0.000698819 -3.26846e-05
265 2 0 30.7174 0 2596.05 2596.03 -99.0249 -1.60169e-06 -0.00342585 -5.01346e-06
266 2 3.2245 30.7174 2.279 -1940.76 -1940.9 5336.46 9.67596e-06 -0.0237918 3.67924e-06
267 2 1.61225 30.7174 4.55799 -2804.09 -2804.23 -877.783 3.32483e-06 -0.0237657 8.2714e-06
268 2 2.41837 32.1137 0 2596.05 2596.03 -99.0249 2.53992e-06 -0.00343033 -4.05872e-06
269 2 0.806124 32.1137 2.279 -1940.76 -1940.9 5336.46 9.04884e-07 -0.0237779 2.50072e-06
270 2 4.03062 32.1137 4.55799 -2804.09 -2804.23 -877.783 6.95113e-06 -0.0237547 -5.55755e-06
271 2 0 30.7174 6.83699 -2812.33 -2812.48 -1020.96 4.33642e-06 -0.0353639 -1.32854e-05
272 2 3.2245 30.7174 9.11598 -2812.36 -2812.5 -1021.14 2.97275e-05 -0.023822 2.42515e-05
273 2 1.61225 30.7174 11.395 -2812.36 -2812.5 -1021.14 3.83016e-05 -0.0238378 3.60063e-05
274 2 2.41837 32.1137 6.83699 -2812.33 -2812.48 -1020.96 -1.61823e-05 -0.035302 -7.40237e-06
275 2 0.806124 32.1137 9.11598 -2812.36 -2812.5 -1021.14 -5.19634e-06 -0.0237701 -2.08564e-05
276 2 4.03062 32.1137 11.395 -2812.36 -2812.5 -1021.13 6.61757e-05 -0.0238838 5.05083e-05
277 2 0 30.7174 13.674 -2812.34 -2812.49 -1021.06 9.88986e-06 -0.035362 5.51835e-05
278 2 3.2245 30.7174 15.953 -2812.36 -2812.5 -1021.13 -0.000203265 -0.0235545 -0.000106603
279 2 1.61225 30.7174 18.232 -2812.36 -2812.49 -1021.04 -0.000181139 -0.0236327 -7.97745e-05
280 2 2.41837 32.1137 13.674 -2812.34 -2812.49 -1021.06 5.47014e-05 -0.0354064 2.94553e-05
281 2 0.806124 32.1137 15.953 -2812.36 -2812.5 -1021.13 1.87769e-05 -0.0237878 3.96961e-05
282 2 4.03062 32.1137 18.232 -2812.36 -2812.5 -1021.04 -0.000118088 -0.0237027 -2.84772e-05
283 2 0 30.7174 20.511 -2804.07 -2804.22 -877.708 2.01714e-07 -0.0353177 -3.55508e-05
284 2 3.2245 30.7174 22.79 -1940.76 -1940.9 5336.46 8.08123e-05 -0.0238223 2.58592e-05
285 2 1.61225 30.7174 25.069 1639.46 1639.45 -62.5457 9.62745e-06 -0.000758917 5.54295e-06
286 2 2.41837 32.1137 20.511 -2804.07 -2804.22 -877.709 -0.000153528 -0.0352922 -1.71175e-05
287 2 0.806124 32.1137 22.79 -1940.76 -1940.9 5336.46 -2.96639e-05 -0.0237714 -9.53952e-06
288 2 4.03062 32.1137 25.069 1639.46 1639.45 -62.5457 5.46875e-05 -0.000753309 2.47445e-06
289 2 0 33.5099 0 2596.05 2596.03 -99.0249 -1.3467e-06 -0.00342693 -4.26871e-06
290 2 3.2245 33.5099 2.279 -1940.76 -1940.9 5336.46 8.26649e-06 -0.0237893 2.68975e-06
291 2 1.61225 33.5099 4.55799 -2804.09 -2804.23 -877.784 6.6668e-06 -0.0237797 1.73895e-05
292 2 2.41837 34.9062 0 2596.05 2596.03 -99.0249 -1.40083e-06 -0.003427 -1.79077e-06
293 2 0.806124 34.9062 2.279 -1940.76 -1940.9 5336.46 -5.76755e-07 -0.023776 -6.21925e-06
294 2 4.03062 34.9062 4.55799 -2804.09 -2804.23 -877.784 1.13706e-05 -0.0237848 -1.93632e-06
295 2 0 33.5099 6.83699 -2812.33 -2812.48 -1020.96 7.02905e-06 -0.0353622 1.27533e-05
296 2 3.2245 33.5099 9.11598 -2812.36 -2812.5 -1021.14 -1.48328e-05 -0.0237639 -4.82527e-06
297 2 1.61225 33.5099 11.395 -2812.36 -2812.5 -1021.14 1.2325e-05 -0.0237995 -1.57802e-05
298 2 2.41837 34.9062 6.83699 -2812.33 -2812.48 -1020.96 -7.29413e-06 -0.0353308 5.94071e-06
299 2 0.806124 34.9062 9.11598 -2812.36 -2812.5 -1021.14 -3.97264e-06 -0.0237725 -1.19813e-05
300 2 4.03062 34.9062 11.395 -2812.36 -2812.5 -1021.14 2.9968e-05 -0.0238215 2.68495e-05
301 2 0 33.5099 13.674 -2812.34 -2812.49 -1021.06 -2.206e-05 -0.0353214 8.4491e-06
302 2 3.2245 33.5099 15.953 -2812.36 -2812.5 -1021.13 -2.68697e-05 -0.0237227 -4.29951e-05
303 2 1.61225 33.5099 18.232 -2812.36 -2812.49 -1021.04 -4.80625e-05 -0.0237209 1.03585e-05
304 2 2.41837 34.9062 13.674 -2812.34 -2812.49 -1021.06 6.0651e-05 -0.0354028 7.83259e-06
305 2 0.806124 34.9062 15.953 -2812.36 -2812.5 -1021.14 1.86543e-05 -0.0237861 2.91517e-05
306 2 4.03062 34.9062 18.232 -2812.36 -2812.49 -1021.04 -0.000124389 -0.0236744 -8.00866e-05
307 2 0 33.5099 20.511 -2804.07 -2804.22 -877.708 7.69263e-05 -0.0353827 2.74563e-06
308 2 3.2245 33.5099 22.79 -1940.76 -1940.9 5336.46 -3.72391e-05 -0.0237863 1.15791e-05
309 2 1.61225 33.5099 25.069 1639.46 1639.45 -62.5456 -1.6807e-05 -0.000751198 -6.72751e-07
310 2 2.41837 34.9062 20.511 -2804.07 -2804.22 -877.708 -9.89337e-05 -0.0352858 -6.76253e-06
311 2 0.806124 34.9062 22.79 -1940.76 -1940.9 5336.46 -1.2442e-06 -0.0237749 -2.12465e-06
312 2 4.03062 34.9062 25.069 1639.46 1639.45 -62.5457 -1.23327e-05 -0.000755132 7.60235e-06
313 2 0 36.3024 0 2596.05 2596.03 -99.0249 6.82348e-07 -0.00342793 -2.43312e-07
314 2 3.2245 36.3024 2.279 -1940.76 -1940.9 5336.46 -1.09587e-06 -0.0237817 -7.80026e-06
315 2 1.61225 36.3024 4.55799 -2804.09 -2804.23 -877.784 4.97256e-06 -0.0237808 -1.19996e-05
316 2 2.41837 37.6987 0 2596.05 2596.03 -99.0249 -5.90459e-06 -0.00342608 6.73869e-07
317 2 0.806124 37.6987 2.279 -1940.76 -1940.9 5336.46 -1.44328e-06 -0.0237748 -1.88299e-05
318 2 4.03062 37.6987 4.55799 -2804.09 -2804.23 -877.784 1.1597e-05 -0.0237828 -1.26121e-05
319 2 0 36.3024 6.83699 -2812.33 -2812.48 -1020.96 8.34833e-07 -0.0353515 1.36306e-05
320 2 3.2245 36.3024 9.11598 -2812.36 -2812.5 -1021.14 -2.05187e-05 -0.0237506 -8.97035e-06
321 2 1.61225 36.3024 11.395 -2812.36 -2812.5 -1021.13 -1.04448e-05 -0.0237664 -3.1911e-05
322 2 2.41837 37.6987 6.83699 -2812.33 -2812.48 -1020.96 1.2937e-05 -0.0353515 9.35442e-06
323 2 0.806124 37.6987 9.11598 -2812.36 -2812.5 -1021.14 2.64581e-06 -0.0237776 1.86464e-05
324 2 4.03062 37.6987 11.395 -2812.36 -2812.5 -1021.14 -1.49834e-05 -0.0237628 -1.26877e-05
325 2 0 36.3024 13.674 -2812.34 -2812.49 -1021.06 -1.77427e-05 -0.03533 -3.23686e-05
326 2 3.2245 36.3024 15.953 -2812.36 -2812.5 -1021.14 7.8708e-05 -0.023819 2.00655e-05
327 2 1.61225 36.3024 18.232 -2812.36 -2812.49 -1021.04 4.47171e-05 -0.023793 4.47521e-05
328 2 2.41837 37.6987 13.674 -2812.34 -2812.49 -1021.06 2.26483e-08 -0.0353482 -2.67456e-05
329 2 0.806124 37.6987 15.953 -2812.36 -2812.5 -1021.14 -3.26787e-06 -0.0237734 -1.4846e-05
330 2 4.03062 37.6987 18.232 -2812.36 -2812.49 -1021.04 5.43157e-05 -0.0237991 1.71048e-05
331 2 0 36.3024 20.511 -2804.07 -2804.22 -877.708 1.95999e-05 -0.0353621 3.93136e-05
332 2 3.2245 36.3024 22.79 -1940.76 -1940.9 5336.46 -5.15962e-05 -0.0237626 -4.91461e-06
333 2 1.61225 36.3024 25.069 1639.46 1639.45 -62.5456 -4.81308e-06 -0.000744625 -3.79049e-06
334 2 2.41837 37.6987 20.511 -2804.07 -2804.22 -877.708 3.97182e-05 -0.0353588 3.15729e-05