ITEM: TIMESTEP
0
ITEM: NUMBER OF ATOMS
3074
ITEM: BOX BOUNDS pp pp pp
0.0000000000000000e+00 3.8693948398131120e+01
0.0000000000000000e+00 4.4679925159782847e+01
0.0000000000000000e+00 6.0000000000000000e+01
ITEM: ATOMS id type x y z c_peratom[1] c_peratom[2] c_peratom[3] c_peratom[4] c_peratom[5] c_peratom[6]
1 2 0 0 0 -205991 -205989 7857.41 6.24906e-05 0.272084 0.000164829
2 2 3.2245 0 2.279 29869.7 29871.8 -82132 -9.18895e-05 0.365686 -0.000132272
3 2 1.61225 0 4.55799 43157 43159.1 13509.7 4.88889e-06 0.365772 -0.000325094
4 2 2.41837 1.39625 0 -205991 -205989 7857.41 -0.000498698 0.271788 0.000110342
5 2 0.806124 1.39625 2.279 29869.7 29871.8 -82132 -1.93966e-05 0.365938 -0.000295026
6 2 4.03062 1.39625 4.55799 43157 43159.1 13509.7 0.000124809 0.365686 -0.000213722
7 2 0 0 6.83699 43283.9 43286.2 15713.4 -3.42242e-05 0.543981 -2.9303e-05
8 2 3.2245 0 9.11598 43284.2 43286.4 15716 0.000142657 0.366237 0.000113497
9 2 1.61225 0 11.395 43284.2 43286.4 15716 -4.63252e-05 0.365943 6.15582e-05
10 2 2.41837 1.39625 6.83699 43283.9 43286.2 15713.4 0.000237016 0.544141 7.69752e-05
11 2 0.806124 1.39625 9.11598 43284.2 43286.4 15716 6.83175e-06 0.365895 0.000374363
12 2 4.03062 1.39625 11.395 43284.2 43286.4 15716 -0.000264397 0.365892 -0.000224548
13 2 0 0 13.674 43283.9 43286.2 15714.8 5.50211e-05 0.544022 -0.000204754
14 2 3.2245 0 15.953 43284.2 43286.4 15716 -0.000169796 0.365781 -0.000127304
15 2 1.61225 0 18.232 43284.2 43286.3 15714.5 7.84527e-06 0.365968 -7.79043e-05
16 2 2.41837 1.39625 13.674 43283.9 43286.2 15714.8 -0.000292024 0.543859 -0.000358718
17 2 0.806124 1.39625 15.953 43284.2 43286.4 15716 6.68012e-05 0.365966 -0.000428031
18 2 4.03062 1.39625 18.232 43284.2 43286.3 15714.5 0.000540774 0.366203 0.000314431
19 2 0 0 20.511 43156.6 43158.9 13508.6 2.21533e-06 0.544013 8.40378e-05
20 2 3.2245 0 22.79 29869.7 29871.8 -82132 0.00025686 0.366053 8.48101e-05
21 2 1.61225 0 25.069 -205991 -205989 7858.56 0.000473427 0.0938709 0.000163786
22 2 2.41837 1.39625 20.511 43156.6 43158.9 13508.6 0.000595883 0.544275 0.000293742
23 2 0.806124 1.39625 22.79 29869.7 29871.8 -82132 9.37651e-05 0.36598 0.000155344
24 2 4.03062 1.39625 25.069 -205991 -205989 7858.56 0.0001224 0.0936195 -0.000231349
25 2 0 2.7925 0 -205991 -205989 7857.41 0.000215781 0.272064 5.8804e-05
26 2 3.2245 2.7925 2.279 29869.7 29871.8 -82132 -8.53885e-05 0.365854 -0.000229975
27 2 1.61225 2.7925 4.55799 43157 43159.1 13509.7 7.54685e-05 0.365945 -0.000486229
28 2 2.41837 4.18874 0 -205991 -205989 7857.41 -0.000396388 0.271821 -4.35348e-05
29 2 0.806124 4.18874 2.279 29869.7 29871.8 -82132 5.23147e-06 0.36595 -0.00028858
30 2 4.03062 4.18874 4.55799 43157 43159.1 13509.7 0.000249009 0.366018 -0.000216175
31 2 0 2.7925 6.83699 43283.9 43286.2 15713.4 -0.000122724 0.543965 0.000178114
32 2 3.2245 2.7925 9.11598 43284.2 43286.4 15716 -6.24047e-05 0.365867 0.000112444
33 2 1.61225 2.7925 11.395 43284.2 43286.4 15716 -0.000201407 0.365756 -0.000119349
34 2 2.41837 4.18874 6.83699 43283.9 43286.2 15713.4 0.000106235 0.543999 0.000139273
35 2 0.806124 4.18874 9.11598 43284.2 43286.4 15716 -9.58997e-05 0.365835 0.000242594
36 2 4.03062 4.18874 11.395 43284.2 43286.4 15716 -3.81116e-05 0.366048 0.00012888
37 2 0 2.7925 13.674 43283.9 43286.2 15714.8 0.000161233 0.544083 -0.000627375
38 2 3.2245 2.7925 15.953 43284.2 43286.4 15716 0.000546484 0.366276 4.2985e-05
39 2 1.61225 2.7925 18.232 43284.2 43286.3 15714.5 0.000632428 0.366232 0.000203894
40 2 2.41837 4.18874 13.674 43283.9 43286.2 15714.9 0.00040492 0.544401 -0.000222314
41 2 0.806124 4.18874 15.953 43284.2 43286.4 15716 0.000324934 0.366101 -8.01393e-05
42 2 4.03062 4.18874 18.232 43284.2 43286.3 15714.5 -0.000153001 0.365667 -0.000435412
43 2 0 2.7925 20.511 43156.6 43158.9 13508.6 -0.000190087 0.543919 0.000530688
44 2 3.2245 2.7925 22.79 29869.7 29871.8 -82132 -4.5521e-05 0.365894 9.35435e-06
45 2 1.61225 2.7925 25.069 -205991 -205989 7858.56 2.34264e-05 0.093556 -4.08299e-05
46 2 2.41837 4.18874 20.511 43156.6 43158.9 13508.6 -0.000111966 0.54378 0.0002154
47 2 0.806124 4.18874 22.79 29869.7 29871.8 -82132 -0.000177522 0.365895 0.000143325
48 2 4.03062 4.18874 25.069 -205991 -205989 7858.56 -0.00144492 0.0939759 0.000355949
49 2 0 5.58499 0 -205991 -205989 7857.41 0.000142623 0.272027 -0.000233216
50 2 3.2245 5.58499 2.279 29869.7 29871.8 -82132 4.28984e-05 0.366057 -0.000119301
51 2 1.61225 5.58499 4.55799 43157 43159.1 13509.7 0.000123054 0.366017 -0.000127884
52 2 2.41837 6.98124 0 -205991 -205989 7857.41 -1.70143e-05 0.27204 -0.000268807
53 2 0.806124 6.98124 2.279 29869.7 29871.8 -82132 2.14637e-05 0.365962 -0.000111505
54 2 4.03062 6.98124 4.55799 43157 43159.1 13509.7 0.000225115 0.365943 -0.000134685
55 2 0 5.58499 6.83699 43283.9 43286.2 15713.4 -5.72367e-05 0.544018 0.000312049
56 2 3.2245 5.58499 9.11598 43284.2 43286.4 15716 -0.000293291 0.365601 7.19294e-06
57 2 1.61225 5.58499 11.395 43284.2 43286.4 15716 3.25008e-05 0.366076 -0.000351694
58 2 2.41837 6.98124 6.83699 43283.9 43286.2 15713.4 -0.000154047 0.543541 6.83456e-05
59 2 0.806124 6.98124 9.11598 43284.2 43286.4 15716 -4.16917e-05 0.365892 -0.000175818
60 2 4.03062 6.98124 11.395 43284.2 43286.4 15716 0.000582627 0.366865 0.00057091
61 2 0 5.58499 13.674 43283.9 43286.2 15714.9 -8.78041e-05 0.543921 -0.000329711
62 2 3.2245 5.58499 15.953 43284.2 43286.4 15716 0.000692265 0.366201 -0.000207908
63 2 1.61225 5.58499 18.232 43284.2 43286.3 15714.5 6.4744e-06 0.365668 0.000495349
64 2 2.41837 6.98124 13.674 43283.9 43286.2 15714.8 0.000977801 0.545041 8.59043e-05
65 2 0.806124 6.98124 15.953 43284.2 43286.4 15716 -2.04176e-05 0.365823 0.000594699
66 2 4.03062 6.98124 18.232 43284.2 43286.3 15714.5 -0.00156334 0.364803 -0.000793431
67 2 0 5.58499 20.511 43156.6 43158.9 13508.6 -0.000119559 0.544037 0.000569279
68 2 3.2245 5.58499 22.79 29869.7 29871.8 -82132 -0.000685425 0.365869 8.80714e-05
69 2 1.61225 5.58499 25.069 -205991 -205989 7858.56 -0.00194514 0.093957 -0.000326582
70 2 2.41837 6.98124 20.511 43156.6 43158.9 13508.6 -0.00210148 0.542988 1.29037e-06
71 2 0.806124 6.98124 22.79 29869.7 29871.8 -82132 -0.000449865 0.36595 -0.000124035
72 2 4.03062 6.98124 25.069 -205991 -205989 7858.56 0.00215546 0.0945605 0.000663364
73 2 0 8.37749 0 -205991 -205989 7857.41 -4.10938e-05 0.271961 -0.000459107
74 2 3.2245 8.37749 2.279 29869.7 29871.8 -82132 0.000141759 0.366184 5.74004e-06
75 2 1.61225 8.37749 4.55799 43157 43159.1 13509.7 8.25557e-05 0.365872 0.000176322
76 2 2.41837 9.77373 0 -205991 -205989 7857.41 0.000194271 0.272378 -0.00032752
77 2 0.806124 9.77373 2.279 29869.7 29871.8 -82132 1.1613e-05 0.365974 1.80731e-05
78 2 4.03062 9.77373 4.55799 43157 43159.1 13509.7 9.07352e-05 0.365557 -0.000173934
79 2 0 8.37749 6.83699 43283.9 43286.2 15713.4 7.78696e-05 0.544179 6.38993e-05
80 2 3.2245 8.37749 9.11598 43284.2 43286.4 15716 6.40432e-05 0.366024 0.000201413
81 2 1.61225 8.37749 11.395 43284.2 43286.4 15716 0.000497862 0.366725 2.54689e-05
82 2 2.41837 9.77373 6.83699 43283.9 43286.2 15713.4 -0.000152349 0.543306 -0.000128343
83 2 0.806124 9.77373 9.11598 43284.2 43286.4 15716 0.000106633 0.366085 -0.00024547
84 2 4.03062 9.77373 11.395 43284.2 43286.4 15716 0.000648443 0.366889 0.000249261
85 2 0 8.37749 13.674 43283.9 43286.2 15714.9 -0.000370311 0.543613 0.000592458
86 2 3.2245 8.37749 15.953 43284.2 43286.4 15716 -0.0014063 0.364331 -0.00108291
87 2 1.61225 8.37749 18.232 43284.2 43286.3 15714.5 -0.00219714 0.364105 -0.000136764
88 2 2.41837 9.77373 13.674 43283.9 43286.2 15714.8 4.07216e-05 0.543912 1.96563e-05
89 2 0.806124 9.77373 15.953 43284.2 43286.3 15716 -0.000802172 0.364943 0.000396283
90 2 4.03062 9.77373 18.232 43284.2 43286.3 15714.6 0.000493148 0.366721 0.000909796
91 2 0 8.37749 20.511 43156.6 43158.9 13508.6 0.000978193 0.544555 -0.000544591
92 2 3.2245 8.37749 22.79 29869.7 29871.8 -82132 0.000347895 0.36631 0.000323009
93 2 1.61225 8.37749 25.069 -205991 -205989 7858.56 -0.000318935 0.0951867 4.57562e-05
94 2 2.41837 9.77373 20.511 43156.6 43158.9 13508.6 -0.000379528 0.544457 0.000501796
95 2 0.806124 9.77373 22.79 29869.7 29871.8 -82132 0.000232143 0.366232 -6.18597e-05
96 2 4.03062 9.77373 25.069 -205991 -205989 7858.55 0.00617138 0.0919807 -0.00166822
97 2 0 11.17 0 -205991 -205989 7857.41 -0.000137543 0.271871 -0.000288495
98 2 3.2245 11.17 2.279 29869.7 29871.8 -82132 0.000101342 0.366201 1.60836e-05
99 2 1.61225 11.17 4.55799 43157 43159.1 13509.7 -2.44154e-05 0.365644 -3.21339e-05
100 2 2.41837 12.5662 0 -205991 -205989 7857.41 0.00010796 0.272629 1.05297e-05
101 2 0.806124 12.5662 2.279 29869.7 29871.8 -82132 -1.07169e-05 0.365975 3.42651e-05
102 2 4.03062 12.5662 4.55799 43157 43159.1 13509.7 -8.81037e-05 0.36536 -0.000353019
103 2 0 11.17 6.83699 43283.9 43286.2 15713.4 9.68956e-05 0.544291 -0.000435986
104 2 3.2245 11.17 9.11598 43284.2 43286.4 15716 0.000645389 0.366893 0.000418236
105 2 1.61225 11.17 11.395 43284.2 43286.4 15716 0.00058029 0.366873 0.000612605
106 2 2.41837 12.5662 6.83699 43283.9 43286.2 15713.4 3.65737e-05 0.54367 -0.00040448
107 2 0.806124 12.5662 9.11598 43284.2 43286.4 15716 0.000146106 0.36624 -7.01711e-05
108 2 4.03062 12.5662 11.395 43284.2 43286.4 15716 -0.000197089 0.364815 -0.000767051
109 2 0 11.17 13.674 43283.9 43286.2 15714.8 -0.000123643 0.543833 0.00106604
110 2 3.2245 11.17 15.953 43284.2 43286.4 15716 -0.00182256 0.363935 -0.00058024
111 2 1.61225 11.17 18.232 43284.2 43286.3 15714.5 -0.00175276 0.364696 -0.000675931
112 2 2.41837 12.5662 13.674 43283.9 43286.2 15714.8 -0.00150617 0.541024 -0.000379433
113 2 0.806124 12.5662 15.953 43284.2 43286.3 15716 -0.000824545 0.364633 -0.000845219
114 2 4.03062 12.5662 18.232 43284.2 43286.3 15714.5 0.00395338 0.370885 0.00300144
115 2 0 11.17 20.511 43156.6 43158.9 13508.6 0.000629065 0.54418 -0.00057239
116 2 3.2245 11.17 22.79 29869.7 29871.8 -82132 0.00281844 0.36692 0.000426385
117 2 1.61225 11.17 25.069 -205991 -205989 7858.56 0.00443055 0.0946768 0.000265353
118 2 2.41837 12.5662 20.511 43156.6 43158.9 13508.6 0.00322811 0.54747 0.00117006
119 2 0.806124 12.5662 22.79 29869.7 29871.8 -82132 0.000239694 0.366103 8.87619e-05
120 2 4.03062 12.5662 25.069 -205991 -205989 7858.55 -0.00442808 0.0867819 -0.00424733
121 2 0 13.9625 0 -205991 -205989 7857.41 -8.83141e-05 0.271808 0.000270132
122 2 3.2245 13.9625 2.279 29869.7 29871.8 -82132 -3.32165e-05 0.366119 -3.21817e-05
123 2 1.61225 13.9625 4.55799 43157 43159.1 13509.7 -0.00012078 0.365531 -0.000478303
124 2 2.41837 15.3587 0 -205991 -205989 7857.41 -4.40433e-05 0.27265 0.000491906
125 2 0.806124 15.3587 2.279 29869.7 29871.8 -82132 -1.60806e-05 0.365966 2.15693e-05
126 2 4.03062 15.3587 4.55799 43157 43159.1 13509.7 -0.000224187 0.36552 -0.00046279
127 2 0 13.9625 6.83699 43283.9 43286.2 15713.4 1.61638e-05 0.54419 -0.000812396
128 2 3.2245 13.9625 9.11598 43284.2 43286.4 15716 0.000837307 0.367547 0.000272299
129 2 1.61225 13.9625 11.395 43284.2 43286.4 15716 0.000242715 0.366124 0.000753965
130 2 2.41837 15.3587 6.83699 43283.9 43286.2 15713.4 0.000116883 0.544395 -0.000596492
131 2 0.806124 15.3587 9.11598 43284.2 43286.4 15716 8.17851e-05 0.366289 -2.32342e-05
132 2 4.03062 15.3587 11.395 43284.2 43286.4 15716 -0.000791629 0.362309 -0.00120309
133 2 0 13.9625 13.674 43283.9 43286.2 15714.8 0.000576886 0.545119 0.000410058
134 2 3.2245 13.9625 15.953 43284.3 43286.4 15716 -0.000314797 0.366015 0.000372329
135 2 1.61225 13.9625 18.232 43284.2 43286.3 15714.5 0.000550772 0.36762 -0.000153017
136 2 2.41837 15.3587 13.674 43283.9 43286.2 15714.8 -0.00170035 0.539155 -0.000540477
137 2 0.806124 15.3587 15.953 43284.2 43286.3 15716 -0.000258901 0.365406 -0.00120806
138 2 4.03062 15.3587 18.232 43284.2 43286.3 15714.5 0.00742555 0.377069 0.0045445
139 2 0 13.9625 20.511 43156.6 43159 13508.6 -0.000524073 0.543338 0.000229469
140 2 3.2245 13.9625 22.79 29869.6 29871.8 -82132 0.0030334 0.364606 -0.000756795
141 2 1.61225 13.9625 25.069 -205991 -205989 7858.56 0.0051695 0.0916067 -0.000112112
142 2 2.41837 15.3587 20.511 43156.6 43158.9 13508.6 0.00531095 0.550465 0.00142021
143 2 0.806124 15.3587 22.79 29869.7 29871.8 -82132 1.83372e-05 0.365981 1.6382e-05
144 2 4.03062 15.3587 25.069 -205991 -205989 7858.55 -0.0145 0.0886006 -0.00253479
145 2 0 16.755 0 -205991 -205989 7857.41 -5.95231e-06 0.271815 0.000606757
146 2 3.2245 16.755 2.279 29869.7 29871.8 -82132 -9.36876e-05 0.366002 -3.19309e-05
147 2 1.61225 16.755 4.55799 43157 43159.1 13509.7 -0.000122213 0.365552 -0.000566944
148 2 2.41837 18.1512 0 -205991 -205989 7857.41 -6.00462e-05 0.272539 0.000494258
149 2 0.806124 18.1512 2.279 29869.7 29871.8 -82132 -2.78206e-06 0.365959 1.91608e-05
150 2 4.03062 18.1512 4.55799 43157 43159.1 13509.7 -0.000182892 0.365766 -0.00031248
151 2 0 16.755 6.83699 43283.9 43286.2 15713.4 -2.79031e-05 0.543941 -0.000754014
152 2 3.2245 16.755 9.11598 43284.2 43286.4 15716 0.000543895 0.367636 -5.61432e-05
153 2 1.61225 16.755 11.395 43284.2 43286.4 15716 -6.89569e-05 0.364873 0.000392806
154 2 2.41837 18.1512 6.83699 43283.9 43286.2 15713.4 5.84572e-05 0.544977 -0.000445445
155 2 0.806124 18.1512 9.11598 43284.2 43286.4 15716 5.89266e-06 0.366279 -6.08143e-05
156 2 4.03062 18.1512 11.395 43284.2 43286.4 15716 -0.00054336 0.361057 -0.000726293
157 2 0 16.755 13.674 43283.9 43286.2 15714.8 0.000806196 0.546533 -0.000343454
158 2 3.2245 16.755 15.953 43284.3 43286.4 15716 0.000394878 0.368065 0.000560143
159 2 1.61225 16.755 18.232 43284.2 43286.3 15714.6 0.000991582 0.369367 0.000211698
160 2 2.41837 18.1512 13.674 43283.9 43286.2 15714.8 -0.000858511 0.538921 -0.000352806
161 2 0.806124 18.1512 15.953 43284.2 43286.4 15716 -2.66708e-05 0.365935 -0.000614917
162 2 4.03062 18.1512 18.232 43284.2 43286.3 15714.5 0.00568559 0.377966 0.00296436
163 2 0 16.755 20.511 43156.7 43159 13508.6 -0.000577529 0.543134 0.000303088
164 2 3.2245 16.755 22.79 29869.6 29871.8 -82132 -0.000981843 0.358083 -0.00173091
165 2 1.61225 16.755 25.069 -205991 -205989 7858.56 0.00223488 0.0879027 -0.000381884
166 2 2.41837 18.1512 20.511 43156.6 43158.9 13508.6 0.00364322 0.551373 0.000953299
167 2 0.806124 18.1512 22.79 29869.7 29871.8 -82132 9.28423e-06 0.365963 6.08931e-05
168 2 4.03062 18.1512 25.069 -205991 -205989 7858.56 -0.00808859 0.0946467 -0.000620236
169 2 0 19.5475 0 -205991 -205989 7857.41 1.62371e-05 0.271858 0.000251902
170 2 3.2245 19.5475 2.279 29869.7 29871.8 -82132 -3.10325e-05 0.36593 -7.92779e-08
171 2 1.61225 19.5475 4.55799 43157 43159.1 13509.7 -2.37348e-05 0.365589 -0.000191205
172 2 2.41837 20.9437 0 -205991 -205989 7857.41 3.57625e-05 0.272497 -7.35462e-05
173 2 0.806124 20.9437 2.279 29869.7 29871.8 -82132 1.04173e-05 0.365963 5.42343e-06
174 2 4.03062 20.9437 4.55799 43157 43159.1 13509.7 2.09495e-05 0.36583 3.85233e-05
175 2 0 19.5475 6.83699 43283.9 43286.2 15713.4 -1.46311e-05 0.543739 -0.000241015
176 2 3.2245 19.5475 9.11598 43284.2 43286.4 15716 0.000167081 0.367515 -4.96967e-05
177 2 1.61225 19.5475 11.395 43284.2 43286.3 15716 -7.93133e-06 0.364107 0.000117566
178 2 2.41837 20.9437 6.83699 43283.9 43286.2 15713.4 -2.73453e-05 0.545119 2.62213e-05
179 2 0.806124 20.9437 9.11598 43284.2 43286.4 15716 -5.71197e-05 0.366271 -1.90349e-06
180 2 4.03062 20.9437 11.395 43284.2 43286.4 15716 0.000178923 0.360565 0.000214041
181 2 0 19.5475 13.674 43283.9 43286.2 15714.8 0.000421883 0.54713 -0.000201728
182 2 3.2245 19.5475 15.953 43284.3 43286.4 15716 7.13121e-05 0.369428 9.9536e-05
183 2 1.61225 19.5475 18.232 43284.2 43286.3 15714.6 0.000148567 0.369717 2.43865e-05
184 2 2.41837 20.9437 13.674 43283.9 43286.2 15714.8 0.000190484 0.538794 6.85823e-05
185 2 0.806124 20.9437 15.953 43284.2 43286.4 15716 9.30244e-05 0.365757 7.04876e-05
186 2 4.03062 20.9437 18.232 43284.2 43286.3 15714.5 0.000106455 0.378972 0.000163405
187 2 0 19.5475 20.511 43156.7 43159 13508.6 -0.000334889 0.542919 0.000112009
188 2 3.2245 19.5475 22.79 29869.6 29871.8 -82132 0.000470369 0.353627 -0.000303541
189 2 1.61225 19.5475 25.069 -205991 -205989 7858.55 0.000418946 0.0858187 -3.58849e-05
190 2 2.41837 20.9437 20.511 43156.6 43158.9 13508.5 -0.000610822 0.551635 -2.7011e-05
191 2 0.806124 20.9437 22.79 29869.7 29871.8 -82132 -9.53056e-05 0.365972 -1.19992e-05
192 2 4.03062 20.9437 25.069 -205991 -205989 7858.56 0.00363859 0.0955363 -0.000377343
193 2 0 22.34 0 -205991 -205989 7857.41 -6.91552e-06 0.27187 -0.000401909
194 2 3.2245 22.34 2.279 29869.7 29871.8 -82132 6.98154e-05 0.36594 3.34741e-05
195 2 1.61225 22.34 4.55799 43157 43159.1 13509.7 9.23725e-05 0.365568 0.000349516
196 2 2.41837 23.7362 0 -205991 -205989 7857.41 0.00011136 0.272583 -0.000557069
197 2 0.806124 23.7362 2.279 29869.7 29871.8 -82132 1.13672e-05 0.365978 3.76257e-06
198 2 4.03062 23.7362 4.55799 43157 43159.1 13509.7 0.000198838 0.365637 0.000393892
199 2 0 22.34 6.83699 43283.9 43286.2 15713.4 9.2701e-06 0.543694 0.000442626
200 2 3.2245 22.34 9.11598 43284.2 43286.4 15716 -0.000215991 0.36768 0.000132344
201 2 1.61225 22.34 11.395 43284.2 43286.3 15716 0.00013336 0.364459 -2.33018e-05
202 2 2.41837 23.7362 6.83699 43283.9 43286.2 15713.4 -0.000119862 0.544768 0.000482458
203 2 0.806124 23.7362 9.11598 43284.2 43286.4 15716 -0.000121515 0.366244 4.33571e-05
204 2 4.03062 23.7362 11.395 43284.2 43286.4 15716 0.000923161 0.360642 0.00121842
205 2 0 22.34 13.674 43283.9 43286.2 15714.8 -0.000155749 0.547181 0.000252827
206 2 3.2245 22.34 15.953 43284.3 43286.4 15716 -0.000549136 0.368732 -0.00050389
207 2 1.61225 22.34 18.232 43284.2 43286.4 15714.6 -0.000740635 0.369135 -0.000306861
208 2 2.41837 23.7362 13.674 43283.9 43286.2 15714.8 0.00138073 0.538276 0.000622708
209 2 0.806124 23.7362 15.953 43284.2 43286.4 15716 0.000477669 0.365152 0.000803124
210 2 4.03062 23.7362 18.232 43284.2 43286.3 15714.5 -0.00742987 0.382882 -0.00394653
211 2 0 22.34 20.511 43156.7 43159 13508.6 0.000150171 0.542838 -0.000200713
212 2 3.2245 22.34 22.79 29869.6 29871.7 -82132 0.00412558 0.35404 0.00193612
213 2 1.61225 22.34 25.069 -205991 -205989 7858.56 -0.00100763 0.086524 0.000578458
214 2 2.41837 23.7362 20.511 43156.6 43158.9 13508.6 -0.00479848 0.551848 -0.00130289
215 2 0.806124 23.7362 22.79 29869.7 29871.8 -82132 -6.33445e-05 0.365998 -3.4676e-05
216 2 4.03062 23.7362 25.069 -205991 -205989 7858.56 0.0175717 0.0885739 0.00110241
217 2 0 25.1325 0 -205991 -205989 7857.41 -1.30383e-05 0.271834 -0.000564314
218 2 3.2245 25.1325 2.279 29869.7 29871.8 -82132 9.87811e-05 0.366021 6.38013e-05
219 2 1.61225 25.1325 4.55799 43157 43159.1 13509.7 0.0001318 0.365517 0.000676018
220 2 2.41837 26.5287 0 -205991 -205989 7857.41 2.97092e-05 0.272653 -0.000405077
221 2 0.806124 26.5287 2.279 29869.7 29871.8 -82132 -4.173e-06 0.365989 9.23221e-06
222 2 4.03062 26.5287 4.55799 43157 43159.1 13509.7 0.000190643 0.365305 0.000535757
223 2 0 25.1325 6.83699 43283.9 43286.2 15713.4 2.9476e-05 0.543831 0.000877888
224 2 3.2245 25.1325 9.11598 43284.2 43286.4 15716 -0.000736353 0.367927 -8.96694e-05
225 2 1.61225 25.1325 11.395 43284.2 43286.4 15716 -0.000112872 0.365716 -0.000508462
226 2 2.41837 26.5287 6.83699 43283.9 43286.2 15713.4 -0.000132677 0.544035 0.000607172
227 2 0.806124 26.5287 9.11598 43284.2 43286.4 15716 -0.000128583 0.366131 1.27575e-05
228 2 4.03062 26.5287 11.395 43284.2 43286.3 15716 0.000915487 0.362617 0.00143453
229 2 0 25.1325 13.674 43283.9 43286.2 15714.8 -0.000681857 0.546777 2.99749e-05
230 2 3.2245 25.1325 15.953 43284.3 43286.4 15716 -0.000327538 0.366893 -0.000530692
231 2 1.61225 25.1325 18.232 43284.2 43286.3 15714.6 -0.000798848 0.367929 -0.000259844
232 2 2.41837 26.5287 13.674 43283.9 43286.2 15714.8 0.00214314 0.538997 0.000870126
233 2 0.806124 26.5287 15.953 43284.2 43286.3 15716 0.000935511 0.364756 0.00130475
234 2 4.03062 26.5287 18.232 43284.2 43286.3 15714.5 -0.00732917 0.376236 -0.00456668
235 2 0 25.1325 20.511 43156.7 43159 13508.6 0.000728452 0.542682 -0.00034062
236 2 3.2245 25.1325 22.79 29869.6 29871.8 -82132 -0.000891028 0.361148 0.00184862
237 2 1.61225 25.1325 25.069 -205991 -205989 7858.56 -0.00455892 0.0900806 0.00055755
238 2 2.41837 26.5287 20.511 43156.6 43159 13508.6 -0.00440654 0.548883 -0.00149064
239 2 0.806124 26.5287 22.79 29869.7 29871.8 -82132 3.66788e-06 0.365972 2.85942e-06
240 2 4.03062 26.5287 25.069 -205991 -205989 7858.55 0.0142728 0.0812168 0.00536669
241 2 0 27.925 0 -205991 -205989 7857.41 4.51923e-05 0.271801 -7.3334e-05
242 2 3.2245 27.925 2.279 29869.7 29871.8 -82132 -1.38243e-05 0.366124 3.15243e-05
243 2 1.61225 27.925 4.55799 43157 43159.1 13509.7 5.93881e-05 0.365562 0.000436267
244 2 2.41837 29.3212 0 -205991 -205989 7857.41 -0.000174042 0.272512 0.000106158
245 2 0.806124 29.3212 2.279 29869.7 29871.8 -82132 -2.06012e-05 0.365983 -3.01588e-05
246 2 4.03062 29.3212 4.55799 43157 43159.1 13509.7 3.69846e-05 0.365213 0.000362882
247 2 0 27.925 6.83699 43283.9 43286.2 15713.4 1.21275e-05 0.544088 0.000737206
248 2 3.2245 27.925 9.11598 43284.2 43286.4 15716 -0.000936146 0.367583 -0.000477228
249 2 1.61225 27.925 11.395 43284.2 43286.4 15716 -0.000544935 0.36679 -0.000912977
250 2 2.41837 29.3212 6.83699 43283.9 43286.2 15713.4 5.59222e-05 0.543385 0.000404505
251 2 0.806124 29.3212 9.11598 43284.2 43286.4 15716 -3.33699e-05 0.365955 0.000114988
252 2 4.03062 29.3212 11.395 43284.2 43286.3 15716 -0.00027155 0.366141 0.000216293
253 2 0 27.925 13.674 43283.9 43286.2 15714.8 -0.000720999 0.545609 -0.000735519
254 2 3.2245 27.925 15.953 43284.3 43286.4 15716 0.00128927 0.364374 0.000241785
255 2 1.61225 27.925 18.232 43284.2 43286.3 15714.5 0.000933191 0.365594 0.000629454
256 2 2.41837 29.3212 13.674 43283.9 43286.2 15714.8 0.00101491 0.542243 0.000216387
257 2 0.806124 29.3212 15.953 43284.2 43286.3 15716 0.000540904 0.365358 0.000540541
258 2 4.03062 29.3212 18.232 43284.2 43286.4 15714.6 -0.00181516 0.368132 -0.00157797
259 2 0 27.925 20.511 43156.6 43159 13508.6 0.00119461 0.542523 -4.08431e-05
260 2 3.2245 27.925 22.79 29869.7 29871.8 -82132 -0.00537293 0.367241 -0.000340184
261 2 1.61225 27.925 25.069 -205991 -205989 7858.56 -0.00540763 0.0939243 -0.000278324
262 2 2.41837 29.3212 20.511 43156.6 43159 13508.6 -0.00126402 0.545718 -0.000744114
263 2 0.806124 29.3212 22.79 29869.7 29871.8 -82132 4.54605e-05 0.366028 -8.92782e-05
264 2 4.03062 29.3212 25.069 -205991 -205989 7858.55 -0.00831049 0.0878032 0.00410666
265 2 0 30.7174 0 -205991 -205989 7857.41 0.00012709 0.271833 0.000397807
266 2 3.2245 30.7174 2.279 29869.7 29871.8 -82132 -0.00014892 0.366173 -5.66262e-05
267 2 1.61225 30.7174 4.55799 43157 43159.1 13509.7 -5.11716e-05 0.365771 -0.000127303
268 2 2.41837 32.1137 0 -205991 -205989 7857.41 -0.000201537 0.272189 0.000322051
269 2 0.806124 32.1137 2.279 29869.7 29871.8 -82132 -1.39268e-05 0.365959 -3.84879e-05
270 2 4.03062 32.1137 4.55799 43157 43159.1 13509.7 -0.000106983 0.365602 8.55347e-05
271 2 0 30.7174 6.83699 43283.9 43286.2 15713.4 -6.67406e-05 0.544277 0.000204472
272 2 3.2245 30.7174 9.11598 43284.2 43286.4 15716 -0.000457527 0.366637 -0.000373249
273 2 1.61225 30.7174 11.395 43284.2 43286.4 15716 -0.000589489 0.366881 -0.000554163
274 2 2.41837 32.1137 6.83699 43283.9 43286.2 15713.4 0.000249058 0.543324 0.000113928
275 2 0.806124 32.1137 9.11598 43284.2 43286.4 15716 7.99754e-05 0.365838 0.000320995
276 2 4.03062 32.1137 11.395 43284.2 43286.4 15716 -0.00101849 0.36759 -0.000777359
277 2 0 30.7174 13.674 43283.9 43286.2 15714.8 -0.000152212 0.544247 -0.000849314
278 2 3.2245 30.7174 15.953 43284.2 43286.4 15716 0.00312839 0.362521 0.00164069
279 2 1.61225 30.7174 18.232 43284.2 43286.3 15714.5 0.00278786 0.363724 0.00122779
280 2 2.41837 32.1137 13.674 43283.9 43286.2 15714.8 -0.000841895 0.54493 -0.000453339
281 2 0.806124 32.1137 15.953 43284.2 43286.4 15716 -0.000288989 0.366111 -0.000610952
282 2 4.03062 32.1137 18.232 43284.2 43286.3 15714.5 0.00181746 0.364801 0.000438284
283 2 0 30.7174 20.511 43156.6 43158.9 13508.6 -3.10452e-06 0.543565 0.000547152
284 2 3.2245 30.7174 22.79 29869.7 29871.8 -82132 -0.00124376 0.366643 -0.000397992
285 2 1.61225 30.7174 25.069 -205991 -205989 7858.56 -0.00120964 0.0953542 -0.000696444
286 2 2.41837 32.1137 20.511 43156.6 43158.9 13508.6 0.00236291 0.543172 0.000263451
287 2 0.806124 32.1137 22.79 29869.7 29871.8 -82132 0.000456549 0.365859 0.00014682
288 2 4.03062 32.1137 25.069 -205991 -205989 7858.56 -0.00687122 0.0946496 -0.000310903
289 2 0 33.5099 0 -205991 -205989 7857.41 0.000106858 0.271919 0.000338712
290 2 3.2245 33.5099 2.279 29869.7 29871.8 -82132 -0.000127227 0.366135 -4.13971e-05
291 2 1.61225 33.5099 4.55799 43157 43159.1 13509.7 -0.000102607 0.365986 -0.000267637
292 2 2.41837 34.9062 0 -205991 -205989 7857.41 0.000111153 0.271925 0.000142094
293 2 0.806124 34.9062 2.279 29869.7 29871.8 -82132 8.87668e-06 0.36593 9.57188e-05
294 2 4.03062 34.9062 4.55799 43157 43159.1 13509.7 -0.000175002 0.366066 2.98013e-05
295 2 0 33.5099 6.83699 43283.9 43286.2 15713.4 -0.000108182 0.54425 -0.000196282
296 2 3.2245 33.5099 9.11598 43284.2 43286.4 15716 0.000228288 0.365743 7.42643e-05
297 2 1.61225 33.5099 11.395 43284.2 43286.4 15716 -0.000189691 0.366292 0.000242869
298 2 2.41837 34.9062 6.83699 43283.9 43286.2 15713.4 0.000112262 0.543766 -9.14317e-05
299 2 0.806124 34.9062 9.11598 43284.2 43286.4 15716 6.11417e-05 0.365875 0.000184401
300 2 4.03062 34.9062 11.395 43284.2 43286.4 15716 -0.000461229 0.366631 -0.000413233
301 2 0 33.5099 13.674 43283.9 43286.2 15714.9 0.000339519 0.543623 -0.000130038
302 2 3.2245 33.5099 15.953 43284.2 43286.4 15716 0.000413544 0.365109 0.000661725
303 2 1.61225 33.5099 18.232 43284.2 43286.3 15714.5 0.000739717 0.365083 -0.000159425
304 2 2.41837 34.9062 13.674 43283.9 43286.2 15714.9 -0.000933462 0.544875 -0.000120549
305 2 0.806124 34.9062 15.953 43284.2 43286.4 15716 -0.000287104 0.366086 -0.000448666
306 2 4.03062 34.9062 18.232 43284.2 43286.3 15714.5 0.00191444 0.364367 0.00123259
307 2 0 33.5099 20.511 43156.6 43158.9 13508.6 -0.00118395 0.544565 -4.22572e-05
308 2 3.2245 33.5099 22.79 29869.7 29871.8 -82132 0.000573137 0.366089 -0.00017821
309 2 1.61225 33.5099 25.069 -205991 -205989 7858.56 0.00211172 0.0943844 8.45279e-05
310 2 2.41837 34.9062 20.511 43156.6 43158.9 13508.6 0.00152266 0.543074 0.00010408
311 2 0.806124 34.9062 22.79 29869.7 29871.8 -82132 1.91491e-05 0.365913 3.26999e-05
312 2 4.03062 34.9062 25.069 -205991 -205989 7858.56 0.00154954 0.0948786 -0.000955198
313 2 0 36.3024 0 -205991 -205989 7857.41 -5.41428e-05 0.271998 1.93063e-05
314 2 3.2245 36.3024 2.279 29869.7 29871.8 -82132 1.68663e-05 0.366017 0.000120052
315 2 1.61225 36.3024 4.55799 43157 43159.1 13509.7 -7.65312e-05 0.366004 0.000184683
316 2 2.41837 37.6987 0 -205991 -205989 7857.41 0.000468516 0.271852 -5.347e-05
317 2 0.806124 37.6987 2.279 29869.7 29871.8 -82132 2.22132e-05 0.365912 0.000289805
318 2 4.03062 37.6987 4.55799 43157 43159.1 13509.7 -0.000178486 0.366034 0.000194109
319 2 0 36.3024 6.83699 43283.9 43286.2 15713.4 -1.28487e-05 0.544085 -0.000209785
320 2 3.2245 36.3024 9.11598 43284.2 43286.4 15716 0.000315798 0.365539 0.00013806
321 2 1.61225 36.3024 11.395 43284.2 43286.4 15716 0.000160753 0.365782 0.000491133
322 2 2.41837 37.6987 6.83699 43283.9 43286.2 15713.4 -0.00019911 0.544085 -0.000143971
323 2 0.806124 37.6987 9.11598 43284.2 43286.4 15716 -4.0721e-05 0.365955 -0.000286982
324 2 4.03062 37.6987 11.395 43284.2 43286.4 15716 0.000230606 0.365727 0.000195273
325 2 0 36.3024 13.674 43283.9 43286.2 15714.9 0.000273073 0.543754 0.000498176
326 2 3.2245 36.3024 15.953 43284.2 43286.4 15716 -0.00121137 0.366592 -0.000308823
327 2 1.61225 36.3024 18.232 43284.2 43286.3 15714.5 -0.000688229 0.366192 -0.000688767
328 2 2.41837 37.6987 13.674 43283.9 43286.2 15714.9 -3.48573e-07 0.544034 0.000411635
329 2 0.806124 37.6987 15.953 43284.2 43286.4 15716 5.02949e-05 0.36589 0.000228491
330 2 4.03062 37.6987 18.232 43284.2 43286.3 15714.5 -0.000835958 0.366286 -0.000263256
331 2 0 36.3024 20.511 43156.6 43158.9 13508.6 -0.000301657 0.544249 -0.000605064
332 2 3.2245 36.3024 22.79 29869.7 29871.8 -82132 0.000794102 0.365723 7.56394e-05
333 2 1.61225 36.3024 25.069 -205991 -205989 7858.56 0.00060474 0.0935585 0.000476257
334 2 2.41837 37.6987 20.511 43156.6 43158.9 13508.6 -0.000611292 0.544197 -0.000485929
335 2 0.806124 37.6987 22.79 29869.7 29871.8 -82132 -0.000122877 0.366005 -0.000171551
336 2 4.03062 37.6987 25.069 -205991 -205989 7858.56 0.00140002 0.0935118 0.000220277
337 2 0 39.0949 0 -205991 -205989 7857.41 -0.000211512 0.272048 -0.000106736
338 2 3.2245 39.0949 2.279 29869.7 29871.8 -82132 0.000111705 0.36584 0.000248815
339 2 1.61225 39.0949 4.55799 43157 43159.1 13509.7 -3.28143e-05 0.36584 0.000547549
340 2 2.41837 40.4912 0 -205991 -205989 7857.41 0.000414517 0.271877 -3.25119e-05
341 2 0.806124 40.4912 2.279 29869.7 29871.8 -82132 8.03286e-06 0.365912 0.000291728
342 2 4.03062 40.4912 4.55799 43157 43159.1 13509.7 -0.000138534 0.36562 0.000229417
343 2 0 39.0949 6.83699 43283.9 43286.2 15713.4 0.000108714 0.543979 -7.29007e-05
344 2 3.2245 39.0949 9.11598 43284.2 43286.4 15716 -0.000100067 0.365934 -0.000216629
345 2 1.61225 39.0949 11.395 43284.2 43286.4 15716 9.91419e-05 0.365847 -1.38954e-05
346 2 2.41837 40.4912 6.83699 43283.9 43286.2 15713.4 -0.000226617 0.544057 -9.49313e-05
347 2 0.806124 40.4912 9.11598 43284.2 43286.4 15716 -2.69552e-05 0.365956 -0.000405834
348 2 4.03062 40.4912 11.395 43284.2 43286.4 15716 0.000266719 0.365899 0.000172445
349 2 0 39.0949 13.674 43283.9 43286.2 15714.9 -7.99412e-05 0.544043 0.000412819
350 2 3.2245 39.0949 15.953 43284.2 43286.4 15716 -0.000140596 0.366098 9.16384e-05
351 2 1.61225 39.0949 18.232 43284.2 43286.3 15714.5 -0.000165835 0.366078 -6.71061e-05
352 2 2.41837 40.4912 13.674 43283.9 43286.2 15714.8 0.000352111 0.543878 0.000326836
353 2 0.806124 40.4912 15.953 43284.2 43286.4 15716 6.39876e-05 0.365877 0.000399371
354 2 4.03062 40.4912 18.232 43284.2 43286.3 15714.5 -0.000372912 0.366164 -0.000272785
355 2 0 39.0949 20.511 43156.6 43158.9 13508.6 0.000248986 0.543919 -0.000298714