ITEM: TIMESTEP
0
ITEM: NUMBER OF ATOMS
3074
ITEM: BOX BOUNDS pp pp pp
0.0000000000000000e+00 3.8693948398131120e+01
0.0000000000000000e+00 4.4679925159782847e+01
0.0000000000000000e+00 6.0000000000000000e+01
ITEM: ATOMS id type x y z c_peratom[1] c_peratom[2] c_peratom[3] c_peratom[4] c_peratom[5] c_peratom[6]
1 2 0 0 0 -205991 -205989 7857.42 1.71631e-06 0.272005 0.000136829
2 2 3.2245 0 2.279 29869.7 29871.8 -82132 -3.78128e-05 0.36582 -3.80884e-05
3 2 1.61225 0 4.55799 43157 43159.1 13509.7 -1.65536e-05 0.36579 -0.00010063
4 2 2.41837 1.39625 0 -205991 -205989 7857.42 -0.00013949 0.271883 0.000155419
5 2 0.806124 1.39625 2.279 29869.7 29871.8 -82132 -2.02405e-05 0.365907 -7.00338e-05
6 2 4.03062 1.39625 4.55799 43157 43159.1 13509.7 -5.67061e-06 0.365796 -3.3181e-05
7 2 0 0 6.83699 43283.9 43286.2 15713.4 -1.44457e-07 0.544012 -2.42092e-05
8 2 3.2245 0 9.11598 43284.3 43286.4 15716 4.39467e-05 0.366066 1.7192e-05
9 2 1.61225 0 11.395 43284.2 43286.4 15716 -3.86205e-05 0.365951 -3.1424e-05
10 2 2.41837 1.39625 6.83699 43283.9 43286.2 15713.4 9.7814e-05 0.544088 5.00496e-05
11 2 0.806124 1.39625 9.11598 43284.3 43286.4 15716 3.21593e-05 0.365949 0.000108792
12 2 4.03062 1.39625 11.395 43284.2 43286.4 15716 -0.000216246 0.365814 -0.000289362
13 2 0 0 13.674 43283.9 43286.2 15714.9 4.22653e-07 0.54401 -0.000142724
14 2 3.2245 0 15.953 43284.3 43286.4 15716 -4.88026e-05 0.36581 -4.15944e-05
15 2 1.61225 0 18.232 43284.2 43286.3 15714.5 2.94666e-05 0.365926 -1.70413e-05
16 2 2.41837 1.39625 13.674 43283.9 43286.2 15714.9 -0.000233026 0.54387 -0.000303746
17 2 0.806124 1.39625 15.953 43284.3 43286.4 15716 -4.69263e-05 0.365909 -0.000269184
18 2 4.03062 1.39625 18.232 43284.2 43286.3 15714.5 0.000537926 0.366171 0.000332298
19 2 0 0 20.511 43156.6 43159 13508.6 1.9386e-06 0.544005 6.03556e-05
20 2 3.2245 0 22.79 29869.7 29871.8 -82132 0.00018228 0.366059 4.81886e-05
21 2 1.61225 0 25.069 -205991 -205989 7858.57 0.000370476 0.0939343 9.35785e-05
22 2 2.41837 1.39625 20.511 43156.6 43159 13508.6 0.000494032 0.544232 0.000259979
23 2 0.806124 1.39625 22.79 29869.7 29871.8 -82132 0.000123574 0.365997 0.000119624
24 2 4.03062 1.39625 25.069 -205991 -205989 7858.57 1.1671e-05 0.0937176 -0.000230794
25 2 0 2.7925 0 -205991 -205989 7857.42 1.65766e-06 0.272006 0.000185244
26 2 3.2245 2.7925 2.279 29869.7 29871.8 -82132 -4.27436e-05 0.365845 -6.05532e-05
27 2 1.61225 2.7925 4.55799 43157 43159.1 13509.7 1.55064e-05 0.365889 -0.000124731
28 2 2.41837 4.18874 0 -205991 -205989 7857.42 -0.000134947 0.271808 6.09623e-05
29 2 0.806124 4.18874 2.279 29869.7 29871.8 -82132 -7.83812e-06 0.365922 -9.08076e-05
30 2 4.03062 4.18874 4.55799 43157 43159.1 13509.7 8.24499e-05 0.365877 -5.20582e-07
31 2 0 2.7925 6.83699 43283.9 43286.2 15713.4 1.2626e-06 0.544008 8.66675e-05
32 2 3.2245 2.7925 9.11598 43284.2 43286.4 15716 -0.000110881 0.365873 -8.64514e-05
33 2 1.61225 2.7925 11.395 43284.2 43286.4 15716 -0.000194051 0.365765 -0.000259646
34 2 2.41837 4.18874 6.83699 43283.9 43286.2 15713.4 2.72244e-05 0.544031 9.00094e-05
35 2 0.806124 4.18874 9.11598 43284.3 43286.4 15716 -7.58208e-05 0.365846 3.27533e-05
36 2 4.03062 4.18874 11.395 43284.3 43286.4 15716 -2.52398e-05 0.366055 -5.86915e-06
37 2 0 2.7925 13.674 43283.9 43286.2 15714.9 -4.48042e-06 0.544015 -0.000499498
38 2 3.2245 2.7925 15.953 43284.3 43286.4 15716 0.000445224 0.366192 0.000122543
39 2 1.61225 2.7925 18.232 43284.2 43286.3 15714.5 0.000532461 0.366214 0.00021997
40 2 2.41837 4.18874 13.674 43283.9 43286.2 15714.9 0.0002895 0.544294 -0.000151777
41 2 0.806124 4.18874 15.953 43284.3 43286.4 15716 0.000294976 0.366113 -5.87528e-05
42 2 4.03062 4.18874 18.232 43284.2 43286.3 15714.5 -0.000266651 0.365618 -0.00038023
43 2 0 2.7925 20.511 43156.6 43159 13508.6 1.78522e-06 0.544009 0.000361133
44 2 3.2245 2.7925 22.79 29869.7 29871.8 -82132 -4.51191e-05 0.365913 -9.05091e-06
45 2 1.61225 2.7925 25.069 -205991 -205989 7858.57 0.000222539 0.0936221 -3.30372e-05
46 2 2.41837 4.18874 20.511 43156.6 43158.9 13508.6 -1.4693e-05 0.543863 0.000116944
47 2 0.806124 4.18874 22.79 29869.7 29871.8 -82132 -3.55449e-05 0.365913 0.000116274
48 2 4.03062 4.18874 25.069 -205991 -205989 7858.57 -0.00132838 0.094069 0.000327403
49 2 0 5.58499 0 -205991 -205989 7857.42 -4.3596e-07 0.272007 -9.31933e-05
50 2 3.2245 5.58499 2.279 29869.7 29871.8 -82132 4.22889e-05 0.365918 -2.05237e-05
51 2 1.61225 5.58499 4.55799 43157 43159.1 13509.7 9.8211e-05 0.365955 4.68489e-05
52 2 2.41837 6.98124 0 -205991 -205989 7857.42 -1.59334e-05 0.271903 -0.000177504
53 2 0.806124 6.98124 2.279 29869.7 29871.8 -82132 2.23714e-05 0.365957 -7.21612e-05
54 2 4.03062 6.98124 4.55799 43157 43159.1 13509.7 0.000140374 0.365717 -5.92274e-05
55 2 0 5.58499 6.83699 43283.9 43286.2 15713.4 3.40214e-06 0.544009 0.000267154
56 2 3.2245 5.58499 9.11598 43284.3 43286.4 15716 -0.000289884 0.365723 -0.00013609
57 2 1.61225 5.58499 11.395 43284.2 43286.4 15716 -7.92335e-05 0.365976 -0.000366302
58 2 2.41837 6.98124 6.83699 43283.9 43286.2 15713.4 -0.00014727 0.543636 7.94616e-06
59 2 0.806124 6.98124 9.11598 43284.3 43286.4 15716 -0.000136961 0.36578 -0.000174469
60 2 4.03062 6.98124 11.395 43284.2 43286.4 15716 0.000528707 0.366791 0.000551775
61 2 0 5.58499 13.674 43283.9 43286.2 15714.9 -8.91584e-06 0.544006 -0.000391168
62 2 3.2245 5.58499 15.953 43284.2 43286.4 15716 0.000559121 0.366112 -0.000106265
63 2 1.61225 5.58499 18.232 43284.2 43286.3 15714.5 0.000297425 0.365845 0.000356687
64 2 2.41837 6.98124 13.674 43283.9 43286.2 15714.9 0.000929534 0.544962 0.00018176
65 2 0.806124 6.98124 15.953 43284.3 43286.4 15716 0.000343465 0.366076 0.000426102
66 2 4.03062 6.98124 18.232 43284.2 43286.3 15714.5 -0.00178234 0.364823 -0.000975979
67 2 0 5.58499 20.511 43156.6 43158.9 13508.6 2.42318e-05 0.544026 0.000496648
68 2 3.2245 5.58499 22.79 29869.7 29871.8 -82132 -0.0006541 0.365901 4.22667e-05
69 2 1.61225 5.58499 25.069 -205991 -205989 7858.57 -0.00170894 0.093842 -0.00017582
70 2 2.41837 6.98124 20.511 43156.6 43158.9 13508.6 -0.0019046 0.543113 -0.000202127
71 2 0.806124 6.98124 22.79 29869.7 29871.8 -82132 -0.000659442 0.365848 -9.51241e-05
72 2 4.03062 6.98124 25.069 -205991 -205989 7858.57 0.00229122 0.0945633 0.000764596
73 2 0 8.37749 0 -205991 -205989 7857.42 -2.42435e-06 0.272004 -0.000392069
74 2 3.2245 8.37749 2.279 29869.7 29871.8 -82132 0.000113322 0.366013 -2.13446e-06
75 2 1.61225 8.37749 4.55799 43157 43159.1 13509.7 0.000107038 0.365855 9.67735e-05
76 2 2.41837 9.77373 0 -205991 -205989 7857.42 5.14937e-05 0.272194 -0.000266318
77 2 0.806124 9.77373 2.279 29869.7 29871.8 -82132 3.58102e-05 0.365994 -6.00287e-05
78 2 4.03062 9.77373 4.55799 43157 43159.1 13509.7 7.22221e-05 0.365401 -0.000258985
79 2 0 8.37749 6.83699 43283.9 43286.2 15713.4 4.63935e-06 0.544016 0.000123307
80 2 3.2245 8.37749 9.11598 43284.3 43286.4 15716 4.20529e-05 0.366075 0.000170987
81 2 1.61225 8.37749 11.395 43284.3 43286.4 15716 0.000455324 0.366684 6.0733e-05
82 2 2.41837 9.77373 6.83699 43283.9 43286.2 15713.4 -0.000162725 0.543336 -0.000167333
83 2 0.806124 9.77373 9.11598 43284.3 43286.4 15716 2.11082e-05 0.365979 -0.000208446
84 2 4.03062 9.77373 11.395 43284.2 43286.4 15716 0.000555794 0.366681 0.000314069
85 2 0 8.37749 13.674 43283.9 43286.2 15714.9 2.58508e-06 0.544002 0.000366716
86 2 3.2245 8.37749 15.953 43284.2 43286.4 15716 -0.00151806 0.364307 -0.00127484
87 2 1.61225 8.37749 18.232 43284.2 43286.3 15714.5 -0.00214196 0.364108 -0.000348241
88 2 2.41837 9.77373 13.674 43283.9 43286.2 15714.9 0.000172887 0.543999 -0.000114331
89 2 0.806124 9.77373 15.953 43284.2 43286.4 15716 -0.000663761 0.364988 0.000352679
90 2 4.03062 9.77373 18.232 43284.2 43286.4 15714.6 0.000563564 0.366798 0.000688789
91 2 0 8.37749 20.511 43156.6 43158.9 13508.6 2.88465e-05 0.544031 -0.000320865
92 2 3.2245 8.37749 22.79 29869.7 29871.8 -82132 0.000304431 0.366242 0.000251807
93 2 1.61225 8.37749 25.069 -205991 -205989 7858.57 -0.00112224 0.095127 0.000248185
94 2 2.41837 9.77373 20.511 43156.7 43159 13508.6 -0.000468328 0.544341 0.000418271
95 2 0.806124 9.77373 22.79 29869.7 29871.8 -82132 -0.000231786 0.36621 -5.8704e-05
96 2 4.03062 9.77373 25.069 -205991 -205989 7858.56 0.00764148 0.0915789 -0.00156934
97 2 0 11.17 0 -205991 -205989 7857.42 -2.26786e-06 0.272 -0.000345641
98 2 3.2245 11.17 2.279 29869.7 29871.8 -82132 7.99608e-05 0.366066 -4.84608e-05
99 2 1.61225 11.17 4.55799 43157 43159.1 13509.7 6.81022e-06 0.36561 -0.000151041
100 2 2.41837 12.5662 0 -205991 -205989 7857.42 -1.51232e-05 0.272506 -5.24502e-05
101 2 0.806124 12.5662 2.279 29869.7 29871.8 -82132 1.72961e-05 0.366009 -6.34126e-05
102 2 4.03062 12.5662 4.55799 43157 43159.1 13509.7 -5.09024e-05 0.365296 -0.000412349
103 2 0 11.17 6.83699 43283.9 43286.2 15713.4 -6.53468e-08 0.544016 -0.000353531
104 2 3.2245 11.17 9.11598 43284.3 43286.4 15716 0.000594595 0.366846 0.000499265
105 2 1.61225 11.17 11.395 43284.3 43286.4 15716 0.00076427 0.367125 0.000552441
106 2 2.41837 12.5662 6.83699 43283.9 43286.2 15713.4 1.57909e-05 0.543622 -0.000300095
107 2 0.806124 12.5662 9.11598 43284.3 43286.4 15716 0.000207694 0.36634 -6.14369e-05
108 2 4.03062 12.5662 11.395 43284.2 43286.4 15716 -0.000599536 0.364068 -0.0011387
109 2 0 11.17 13.674 43283.9 43286.2 15714.9 4.82486e-05 0.544041 0.00101793
110 2 3.2245 11.17 15.953 43284.3 43286.4 15716 -0.0016069 0.364317 -0.00074009
111 2 1.61225 11.17 18.232 43284.2 43286.3 15714.5 -0.00252374 0.364145 -0.000627183
112 2 2.41837 12.5662 13.674 43283.9 43286.2 15714.9 -0.00167861 0.5408 -0.000929727
113 2 0.806124 12.5662 15.953 43284.2 43286.4 15716 -0.00189766 0.363327 -0.0007183
114 2 4.03062 12.5662 18.232 43284.2 43286.4 15714.6 0.00427965 0.370774 0.00290709
115 2 0 11.17 20.511 43156.6 43158.9 13508.6 -6.64464e-05 0.543988 -0.000755221
116 2 3.2245 11.17 22.79 29869.7 29871.8 -82132 0.00316419 0.366884 0.00057103
117 2 1.61225 11.17 25.069 -205991 -205989 7858.57 0.00413304 0.095107 0.000314533
118 2 2.41837 12.5662 20.511 43156.7 43159 13508.6 0.00278276 0.546847 0.00127276
119 2 0.806124 12.5662 22.79 29869.7 29871.8 -82132 0.000270852 0.366179 7.0813e-05
120 2 4.03062 12.5662 25.069 -205991 -205989 7858.56 -0.00513571 0.084081 -0.00573781
121 2 0 13.9625 0 -205991 -205989 7857.42 -7.32152e-07 0.271997 3.61096e-05
122 2 3.2245 13.9625 2.279 29869.7 29871.8 -82132 -2.82572e-05 0.36604 -9.9072e-05
123 2 1.61225 13.9625 4.55799 43157 43159.1 13509.7 -0.000111418 0.365409 -0.000463145
124 2 2.41837 15.3587 0 -205991 -205989 7857.42 -0.0001065 0.27265 0.00025925
125 2 0.806124 15.3587 2.279 29869.7 29871.8 -82132 -1.09455e-05 0.365992 -4.90493e-05
126 2 4.03062 15.3587 4.55799 43157 43159.1 13509.7 -0.000126193 0.365514 -0.000387694
127 2 0 13.9625 6.83699 43283.9 43286.2 15713.4 -7.47895e-06 0.544002 -0.00071514
128 2 3.2245 13.9625 9.11598 43284.2 43286.4 15716 0.000824811 0.367486 0.000435498
129 2 1.61225 13.9625 11.395 43284.2 43286.4 15716 0.000476967 0.366516 0.000591044
130 2 2.41837 15.3587 6.83699 43283.9 43286.2 15713.4 0.000147586 0.544347 -0.000328685
131 2 0.806124 15.3587 9.11598 43284.3 43286.4 15716 0.000246253 0.366633 3.44892e-05
132 2 4.03062 15.3587 11.395 43284.2 43286.4 15716 -0.00133891 0.361244 -0.00180188
133 2 0 13.9625 13.674 43283.9 43286.2 15714.8 9.49754e-05 0.544161 0.000749646
134 2 3.2245 13.9625 15.953 43284.3 43286.4 15716 -1.72571e-05 0.366141 0.00018234
135 2 1.61225 13.9625 18.232 43284.2 43286.3 15714.6 0.000107517 0.367125 0.000151774
136 2 2.41837 15.3587 13.674 43283.9 43286.2 15714.9 -0.00196129 0.539003 -0.000973343
137 2 0.806124 15.3587 15.953 43284.2 43286.4 15716 -0.00148802 0.363523 -0.00118242
138 2 4.03062 15.3587 18.232 43284.2 43286.3 15714.5 0.0116891 0.380968 0.00686309
139 2 0 13.9625 20.511 43156.7 43159 13508.6 -8.30872e-05 0.543949 -2.49447e-05
140 2 3.2245 13.9625 22.79 29869.7 29871.8 -82132 0.00463072 0.363169 -0.00120068
141 2 1.61225 13.9625 25.069 -205991 -205989 7858.57 0.007481 0.0917473 -0.000444148
142 2 2.41837 15.3587 20.511 43156.7 43158.9 13508.6 0.00742109 0.551932 0.00228411
143 2 0.806124 15.3587 22.79 29869.7 29871.8 -82132 -0.000188367 0.365875 -5.23898e-05
144 2 4.03062 15.3587 25.069 -205991 -205989 7858.56 -0.02497 0.0870296 -0.00365197
145 2 0 16.755 0 -205991 -205989 7857.42 1.04171e-07 0.271997 0.000320555
146 2 3.2245 16.755 2.279 29869.7 29871.8 -82132 -8.47474e-05 0.365967 -8.49659e-05
147 2 1.61225 16.755 4.55799 43157 43159.1 13509.7 -0.000139495 0.36537 -0.00048466
148 2 2.41837 18.1512 0 -205991 -205989 7857.42 -9.74167e-05 0.272633 0.000295969
149 2 0.806124 18.1512 2.279 29869.7 29871.8 -82132 -1.66721e-05 0.365965 -1.89065e-05
150 2 4.03062 18.1512 4.55799 43157 43159.1 13509.7 -0.00010258 0.365803 -0.000220885
151 2 0 16.755 6.83699 43283.9 43286.2 15713.4 -8.65208e-06 0.543983 -0.000651116
152 2 3.2245 16.755 9.11598 43284.2 43286.4 15716 0.000532118 0.367416 5.59528e-05
153 2 1.61225 16.755 11.395 43284.2 43286.4 15716 -5.27258e-05 0.364822 0.000205801
154 2 2.41837 18.1512 6.83699 43283.9 43286.2 15713.4 0.000114497 0.545007 -0.000220486
155 2 0.806124 18.1512 9.11598 43284.3 43286.4 15716 0.000148888 0.366774 2.69966e-05
156 2 4.03062 18.1512 11.395 43284.2 43286.4 15716 -0.000827319 0.360713 -0.00102726
157 2 0 16.755 13.674 43283.9 43286.2 15714.8 6.29561e-05 0.544293 -9.396e-05
158 2 3.2245 16.755 15.953 43284.3 43286.4 15716 0.000136117 0.366387 0.000141513
159 2 1.61225 16.755 18.232 43284.2 43286.4 15714.6 0.00113934 0.369301 0.000475248
160 2 2.41837 18.1512 13.674 43283.9 43286.2 15714.9 -0.000926088 0.539629 -0.000432379
161 2 0.806124 18.1512 15.953 43284.2 43286.4 15716 -0.000499383 0.364923 -0.000624483
162 2 4.03062 18.1512 18.232 43284.2 43286.3 15714.5 0.00786485 0.377229 0.00395447
163 2 0 16.755 20.511 43156.7 43159 13508.6 -1.30578e-06 0.544008 5.03274e-06
164 2 3.2245 16.755 22.79 29869.6 29871.7 -82132 -0.0058908 0.34975 -0.00431206
165 2 1.61225 16.755 25.069 -205991 -205989 7858.56 0.00484868 0.0858412 -0.00107849
166 2 2.41837 18.1512 20.511 43156.6 43158.9 13508.5 0.0064856 0.554168 0.0014926
167 2 0.806124 18.1512 22.79 29869.7 29871.8 -82132 8.01286e-05 0.36601 2.34185e-05
168 2 4.03062 18.1512 25.069 -205991 -205989 7858.57 -0.0143492 0.0976788 -0.000155227
169 2 0 19.5475 0 -205991 -205989 7857.42 -2.02465e-07 0.271997 0.000179143
170 2 3.2245 19.5475 2.279 29869.7 29871.8 -82132 -4.08875e-05 0.365913 -2.9272e-05
171 2 1.61225 19.5475 4.55799 43157 43159.1 13509.7 -5.95411e-05 0.365408 -0.000191189
172 2 2.41837 20.9437 0 -205991 -205989 7857.42 2.14907e-06 0.272602 -8.08206e-06
173 2 0.806124 20.9437 2.279 29869.7 29871.8 -82132 7.8547e-08 0.365954 4.75347e-07
174 2 4.03062 20.9437 4.55799 43157 43159.1 13509.7 2.63147e-06 0.36592 6.10447e-06
175 2 0 19.5475 6.83699 43283.9 43286.2 15713.4 -2.93515e-06 0.543973 -0.000245777
176 2 3.2245 19.5475 9.11598 43284.2 43286.4 15716 0.000137055 0.366982 -6.93992e-05
177 2 1.61225 19.5475 11.395 43284.2 43286.4 15716 -0.000128603 0.363389 -1.41255e-05
178 2 2.41837 20.9437 6.83699 43283.9 43286.2 15713.4 -2.24408e-06 0.54525 6.96275e-06
179 2 0.806124 20.9437 9.11598 43284.3 43286.4 15716 -1.65011e-06 0.366804 -1.07719e-06
180 2 4.03062 20.9437 11.395 43284.2 43286.4 15716 1.99641e-05 0.360948 2.20542e-05
181 2 0 19.5475 13.674 43283.9 43286.2 15714.8 2.09877e-06 0.544345 -0.000209941
182 2 3.2245 19.5475 15.953 43284.3 43286.4 15716 0.000192213 0.367727 0.000170154
183 2 1.61225 19.5475 18.232 43284.2 43286.4 15714.6 0.000602432 0.370682 0.000246949
184 2 2.41837 20.9437 13.674 43283.9 43286.2 15714.9 2.29611e-05 0.540189 1.17749e-05
185 2 0.806124 20.9437 15.953 43284.2 43286.4 15716 1.07111e-05 0.365536 1.90925e-05
186 2 4.03062 20.9437 18.232 43284.2 43286.3 15714.5 -0.000385421 0.368857 -0.000201166
187 2 0 19.5475 20.511 43156.7 43159 13508.6 5.68139e-06 0.544079 -5.89371e-05
188 2 3.2245 19.5475 22.79 29869.6 29871.7 -82132 -0.00513648 0.341507 -0.00218683
189 2 1.61225 19.5475 25.069 -205991 -205989 7858.56 0.000911327 0.0815333 -0.000558229
190 2 2.41837 20.9437 20.511 43156.6 43158.9 13508.5 -0.000246171 0.553029 -6.64078e-05
191 2 0.806124 20.9437 22.79 29869.7 29871.8 -82132 -2.76996e-06 0.366022 -2.48108e-06
192 2 4.03062 20.9437 25.069 -205991 -205989 7858.58 0.000233064 0.10041 2.56323e-05
193 2 0 22.34 0 -205991 -205989 7857.42 -6.75118e-07 0.271997 -0.000192105
194 2 3.2245 22.34 2.279 29869.7 29871.8 -82132 4.36526e-05 0.365914 3.17455e-05
195 2 1.61225 22.34 4.55799 43157 43159.1 13509.7 6.30299e-05 0.365408 0.000208459
196 2 2.41837 23.7362 0 -205991 -205989 7857.42 0.000100833 0.272634 -0.000302394
197 2 0.806124 23.7362 2.279 29869.7 29871.8 -82132 1.67696e-05 0.365966 2.07077e-05
198 2 4.03062 23.7362 4.55799 43157 43159.1 13509.7 0.000106086 0.365795 0.000231977
199 2 0 22.34 6.83699 43283.9 43286.2 15713.4 4.63481e-06 0.543977 0.000266167
200 2 3.2245 22.34 9.11598 43284.2 43286.4 15716 -0.000155983 0.36699 6.61304e-05
201 2 1.61225 22.34 11.395 43284.2 43286.4 15716 0.000129461 0.36342 -5.07534e-07
202 2 2.41837 23.7362 6.83699 43283.9 43286.2 15713.4 -0.000117294 0.544988 0.000232136
203 2 0.806124 23.7362 9.11598 43284.3 43286.4 15716 -0.000150972 0.366771 -2.78473e-05
204 2 4.03062 23.7362 11.395 43284.2 43286.4 15716 0.00085513 0.360744 0.00106228
205 2 0 22.34 13.674 43283.9 43286.2 15714.8 -3.63971e-05 0.544339 0.00022209
206 2 3.2245 22.34 15.953 43284.3 43286.4 15716 -0.00020052 0.367719 -0.000178958
207 2 1.61225 22.34 18.232 43284.2 43286.4 15714.6 -0.000633156 0.370695 -0.000254508
208 2 2.41837 23.7362 13.674 43283.9 43286.2 15714.9 0.00097076 0.539624 0.000451268
209 2 0.806124 23.7362 15.953 43284.2 43286.4 15716 0.000520313 0.364915 0.000659414
210 2 4.03062 23.7362 18.232 43284.2 43286.3 15714.5 -0.00832557 0.377196 -0.00423604
211 2 0 22.34 20.511 43156.7 43159 13508.6 -1.84732e-05 0.544076 6.21331e-05
212 2 3.2245 22.34 22.79 29869.6 29871.7 -82132 0.00504123 0.341828 0.00227383
213 2 1.61225 22.34 25.069 -205991 -205989 7858.56 -0.00111179 0.0816597 0.000575707
214 2 2.41837 23.7362 20.511 43156.6 43158.9 13508.5 -0.00672398 0.554036 -0.0015708
215 2 0.806124 23.7362 22.79 29869.7 29871.8 -82132 -7.65946e-05 0.366008 -2.3098e-05
216 2 4.03062 23.7362 25.069 -205991 -205989 7858.57 0.0146557 0.0975079 0.000260818
217 2 0 25.1325 0 -205991 -205989 7857.42 -4.86294e-08 0.271997 -0.000316327
218 2 3.2245 25.1325 2.279 29869.7 29871.8 -82132 8.48073e-05 0.365969 8.73076e-05
219 2 1.61225 25.1325 4.55799 43157 43159.1 13509.7 0.000140298 0.365371 0.000492747
220 2 2.41837 26.5287 0 -205991 -205989 7857.42 0.000107129 0.272646 -0.000247972
221 2 0.806124 26.5287 2.279 29869.7 29871.8 -82132 1.07843e-05 0.365992 5.13813e-05
222 2 4.03062 26.5287 4.55799 43157 43159.1 13509.7 0.000124939 0.365504 0.000392673
223 2 0 25.1325 6.83699 43283.9 43286.2 15713.4 8.77428e-06 0.543993 0.000663485
224 2 3.2245 25.1325 9.11598 43284.2 43286.4 15716 -0.000551559 0.367419 -6.91624e-05
225 2 1.61225 25.1325 11.395 43284.2 43286.4 15716 3.59717e-05 0.364883 -0.000228828
226 2 2.41837 26.5287 6.83699 43283.9 43286.2 15713.4 -0.000145265 0.544318 0.000332645
227 2 0.806124 26.5287 9.11598 43284.3 43286.4 15716 -0.000245967 0.366627 -3.08125e-05
228 2 4.03062 26.5287 11.395 43284.2 43286.4 15716 0.00131283 0.361369 0.00178544
229 2 0 25.1325 13.674 43283.9 43286.2 15714.8 -8.10643e-05 0.544254 6.59355e-05
230 2 3.2245 25.1325 15.953 43284.3 43286.4 15716 -0.000149427 0.366434 -0.000158955
231 2 1.61225 25.1325 18.232 43284.2 43286.4 15714.6 -0.00115089 0.369323 -0.000474738
232 2 2.41837 26.5287 13.674 43283.9 43286.2 15714.9 0.00196064 0.539085 0.000962884
233 2 0.806124 26.5287 15.953 43284.2 43286.4 15716 0.00149317 0.363524 0.00117276
234 2 4.03062 26.5287 18.232 43284.2 43286.3 15714.5 -0.0113572 0.380307 -0.00671562
235 2 0 25.1325 20.511 43156.7 43159 13508.6 4.11642e-06 0.544005 -1.40038e-05
236 2 3.2245 25.1325 22.79 29869.6 29871.7 -82132 0.0053389 0.350473 0.0041717
237 2 1.61225 25.1325 25.069 -205991 -205989 7858.56 -0.00498452 0.0860874 0.00104648
238 2 2.41837 26.5287 20.511 43156.7 43158.9 13508.6 -0.00725789 0.551671 -0.0022492
239 2 0.806124 26.5287 22.79 29869.7 29871.8 -82132 0.000150545 0.365895 4.15493e-05
240 2 4.03062 26.5287 25.069 -205991 -205989 7858.56 0.0240848 0.0870951 0.00370741
241 2 0 27.925 0 -205991 -205989 7857.42 1.80404e-06 0.271999 -1.80101e-05
242 2 3.2245 27.925 2.279 29869.7 29871.8 -82132 2.46656e-05 0.366041 9.89427e-05
243 2 1.61225 27.925 4.55799 43157 43159.1 13509.7 0.000108067 0.365414 0.000454092
244 2 2.41837 29.3212 0 -205991 -205989 7857.42 1.29215e-05 0.272495 6.82045e-05
245 2 0.806124 29.3212 2.279 29869.7 29871.8 -82132 -1.75476e-05 0.366008 6.40974e-05
246 2 4.03062 29.3212 4.55799 43157 43159.1 13509.7 4.46113e-05 0.365295 0.00040556
247 2 0 27.925 6.83699 43283.9 43286.2 15713.4 4.67908e-06 0.544013 0.000708719
248 2 3.2245 27.925 9.11598 43284.2 43286.4 15716 -0.000823553 0.367456 -0.000440404
249 2 1.61225 27.925 11.395 43284.2 43286.4 15716 -0.000491099 0.366546 -0.000593889
250 2 2.41837 29.3212 6.83699 43283.9 43286.2 15713.4 -9.62991e-06 0.543602 0.000292263
251 2 0.806124 29.3212 9.11598 43284.3 43286.4 15716 -0.000205916 0.366335 6.8767e-05
252 2 4.03062 29.3212 11.395 43284.2 43286.4 15716 0.000536174 0.364213 0.00107454
253 2 0 27.925 13.674 43283.9 43286.2 15714.8 -7.41861e-05 0.54409 -0.000782411
254 2 3.2245 27.925 15.953 43284.3 43286.4 15716 4.2319e-05 0.36613 -0.00018667
255 2 1.61225 27.925 18.232 43284.2 43286.3 15714.6 -4.20519e-05 0.367062 -0.000135491
256 2 2.41837 29.3212 13.674 43283.9 43286.2 15714.9 0.00159617 0.540968 0.000887823
257 2 0.806124 29.3212 15.953 43284.2 43286.4 15716 0.00186526 0.363369 0.000649437
258 2 4.03062 29.3212 18.232 43284.2 43286.4 15714.6 -0.00407191 0.37053 -0.00279481
259 2 0 27.925 20.511 43156.7 43159 13508.6 4.60757e-05 0.543992 4.60036e-05
260 2 3.2245 27.925 22.79 29869.7 29871.8 -82132 -0.0045832 0.363441 0.00107872
261 2 1.61225 27.925 25.069 -205991 -205989 7858.57 -0.00738878 0.0918942 0.000418464
262 2 2.41837 29.3212 20.511 43156.7 43159 13508.6 -0.00266772 0.546754 -0.00125233
263 2 0.806124 29.3212 22.79 29869.7 29871.8 -82132 -0.000316382 0.366215 -7.79031e-05
264 2 4.03062 29.3212 25.069 -205991 -205989 7858.56 0.0045074 0.0846031 0.00549702
265 2 0 30.7174 0 -205991 -205989 7857.42 2.82504e-06 0.272004 0.000356542
266 2 3.2245 30.7174 2.279 29869.7 29871.8 -82132 -8.32575e-05 0.366063 4.59549e-05
267 2 1.61225 30.7174 4.55799 43157 43159.1 13509.7 -1.12615e-05 0.365618 0.000134088
268 2 2.41837 32.1137 0 -205991 -205989 7857.42 -5.36243e-05 0.272181 0.000268234
269 2 0.806124 32.1137 2.279 29869.7 29871.8 -82132 -3.57981e-05 0.365993 5.89483e-05
270 2 4.03062 32.1137 4.55799 43157 43159.1 13509.7 -7.79444e-05 0.365413 0.000245713
271 2 0 30.7174 6.83699 43283.9 43286.2 15713.4 -2.77121e-06 0.544019 0.000330964
272 2 3.2245 30.7174 9.11598 43284.3 43286.4 15716 -0.000571362 0.366805 -0.00048774
273 2 1.61225 30.7174 11.395 43284.3 43286.4 15716 -0.000758033 0.367116 -0.000526422
274 2 2.41837 32.1137 6.83699 43283.9 43286.2 15713.4 0.000165118 0.543342 0.000152614
275 2 0.806124 32.1137 9.11598 43284.3 43286.4 15716 -1.88255e-05 0.365976 0.000210841
276 2 4.03062 32.1137 11.395 43284.2 43286.4 15716 -0.000560568 0.366703 -0.000329692
277 2 0 30.7174 13.674 43283.9 43286.2 15714.9 -1.71817e-05 0.543994 -0.00100233
278 2 3.2245 30.7174 15.953 43284.3 43286.4 15716 0.00162419 0.364309 0.000762368
279 2 1.61225 30.7174 18.232 43284.2 43286.3 15714.5 0.00254331 0.364119 0.000601152
280 2 2.41837 32.1137 13.674 43283.9 43286.2 15714.9 -0.000226943 0.544078 0.000107614
281 2 0.806124 32.1137 15.953 43284.2 43286.4 15716 0.000639277 0.36502 -0.000373534
282 2 4.03062 32.1137 18.232 43284.2 43286.4 15714.6 -0.000507229 0.366756 -0.000661102
283 2 0 30.7174 20.511 43156.6 43158.9 13508.6 -1.61739e-05 0.544054 0.000772185
284 2 3.2245 30.7174 22.79 29869.7 29871.8 -82132 -0.00294704 0.366836 -0.000553779
285 2 1.61225 30.7174 25.069 -205991 -205989 7858.57 -0.00394753 0.0951286 -0.000295193
286 2 2.41837 32.1137 20.511 43156.6 43159 13508.6 0.000543926 0.544285 -0.000409206
287 2 0.806124 32.1137 22.79 29869.7 29871.8 -82132 0.00024209 0.36621 6.55962e-05
288 2 4.03062 32.1137 25.069 -205991 -205989 7858.56 -0.00728964 0.0917697 0.00143425
289 2 0 33.5099 0 -205991 -205989 7857.42 1.3221e-06 0.272008 0.000382627
290 2 3.2245 33.5099 2.279 29869.7 29871.8 -82132 -0.000112388 0.366008 7.49767e-07
291 2 1.61225 33.5099 4.55799 43157 43159.1 13509.7 -0.000107484 0.365859 -0.000103079
292 2 2.41837 34.9062 0 -205991 -205989 7857.42 1.54338e-05 0.271897 0.00016405
293 2 0.806124 34.9062 2.279 29869.7 29871.8 -82132 -2.2082e-05 0.365957 7.05778e-05
294 2 4.03062 34.9062 4.55799 43157 43159.1 13509.7 -0.000137812 0.365727 5.39047e-05
295 2 0 33.5099 6.83699 43283.9 43286.2 15713.4 -3.40513e-06 0.544009 -0.000138884
296 2 3.2245 33.5099 9.11598 43284.3 43286.4 15716 -1.97028e-05 0.366052 -0.000157249
297 2 1.61225 33.5099 11.395 43284.3 43286.4 15716 -0.00043756 0.366662 -3.11491e-05
298 2 2.41837 34.9062 6.83699 43283.9 43286.2 15713.4 0.000143661 0.543654 -1.47082e-05
299 2 0.806124 34.9062 9.11598 43284.3 43286.4 15716 0.00013726 0.36578 0.000167643
300 2 4.03062 34.9062 11.395 43284.2 43286.4 15716 -0.000497611 0.366752 -0.000526288
301 2 0 33.5099 13.674 43283.9 43286.2 15714.9 2.16897e-06 0.543998 -0.000329008
302 2 3.2245 33.5099 15.953 43284.2 43286.4 15716 0.00139789 0.364419 0.00122741
303 2 1.61225 33.5099 18.232 43284.2 43286.3 15714.5 0.00202888 0.36419 0.00029563
304 2 2.41837 34.9062 13.674 43283.9 43286.2 15714.9 -0.000912012 0.544941 -0.000156718
305 2 0.806124 34.9062 15.953 43284.3 43286.4 15716 -0.000343609 0.366079 -0.000398533
306 2 4.03062 34.9062 18.232 43284.2 43286.3 15714.5 0.00172097 0.364852 0.000967875
307 2 0 33.5099 20.511 43156.6 43158.9 13508.6 1.85063e-06 0.544026 0.000273097
308 2 3.2245 33.5099 22.79 29869.7 29871.8 -82132 -0.000278575 0.366234 -0.000253671
309 2 1.61225 33.5099 25.069 -205991 -205989 7858.57 0.00118654 0.0950747 -0.000219559
310 2 2.41837 34.9062 20.511 43156.6 43158.9 13508.6 0.00181272 0.543143 0.000181547
311 2 0.806124 34.9062 22.79 29869.7 29871.8 -82132 0.000646859 0.365848 7.9298e-05
312 2 4.03062 34.9062 25.069 -205991 -205989 7858.57 -0.0020952 0.0945403 -0.000757174
313 2 0 36.3024 0 -205991 -205989 7857.42 -1.00673e-06 0.272007 7.43949e-05
314 2 3.2245 36.3024 2.279 29869.7 29871.8 -82132 -3.85378e-05 0.365916 2.12069e-05
315 2 1.61225 36.3024 4.55799 43157 43159.1 13509.7 -9.43543e-05 0.365955 -4.00504e-05
316 2 2.41837 37.6987 0 -205991 -205989 7857.42 0.000134868 0.271811 -7.32758e-05
317 2 0.806124 37.6987 2.279 29869.7 29871.8 -82132 8.16551e-06 0.365923 8.94074e-05
318 2 4.03062 37.6987 4.55799 43157 43159.1 13509.7 -7.49519e-05 0.365878 4.67344e-06
319 2 0 36.3024 6.83699 43283.9 43286.2 15713.4 -3.43961e-07 0.544003 -0.000261945
320 2 3.2245 36.3024 9.11598 43284.3 43286.4 15716 0.000288998 0.365724 0.000137537
321 2 1.61225 36.3024 11.395 43284.2 43286.4 15716 8.89239e-05 0.365961 0.000368968
322 2 2.41837 37.6987 6.83699 43283.9 43286.2 15713.4 -3.02916e-05 0.544037 -8.47503e-05
323 2 0.806124 37.6987 9.11598 43284.3 43286.4 15716 7.4298e-05 0.365846 -3.77119e-05
324 2 4.03062 37.6987 11.395 43284.3 43286.4 15716 3.76501e-05 0.366033 2.10322e-05
325 2 0 36.3024 13.674 43283.9 43286.2 15714.9 -5.49178e-06 0.544021 0.000413523
326 2 3.2245 36.3024 15.953 43284.2 43286.4 15716 -0.000579258 0.366133 9.09566e-05
327 2 1.61225 36.3024 18.232 43284.2 43286.3 15714.5 -0.000333941 0.365876 -0.000350318
328 2 2.41837 37.6987 13.674 43283.9 43286.2 15714.9 -0.000261409 0.544265 0.000161392
329 2 0.806124 37.6987 15.953 43284.3 43286.4 15716 -0.000292234 0.366112 7.78494e-05
330 2 4.03062 37.6987 18.232 43284.2 43286.3 15714.5 0.000200831 0.365667 0.000337227
331 2 0 36.3024 20.511 43156.6 43158.9 13508.6 1.86987e-05 0.544005 -0.000506315
332 2 3.2245 36.3024 22.79 29869.7 29871.8 -82132 0.000630008 0.365898 -3.9468e-05
333 2 1.61225 36.3024 25.069 -205991 -205989 7858.57 0.00162756 0.0938182 0.000164426
334 2 2.41837 37.6987 20.511 43156.6 43158.9 13508.6 -3.79496e-05 0.543895 -0.000124573
335 2 0.806124 37.6987 22.79 29869.7 29871.8 -82132 2.99556e-05 0.365916 -0.000119998
336 2 4.03062 37.6987 25.069 -205991 -205989 7858.57 0.00126674 0.0940394 -0.00029665
337 2 0 39.0949 0 -205991 -205989 7857.42 -1.54674e-06 0.272005 -0.000191017
338 2 3.2245 39.0949 2.279 29869.7 29871.8 -82132 4.46658e-05 0.365846 6.09623e-05
339 2 1.61225 39.0949 4.55799 43157 43159.1 13509.7 -1.28995e-05 0.365887 0.000130293
340 2 2.41837 40.4912 0 -205991 -205989 7857.42 0.000138785 0.271889 -0.00015125
341 2 0.806124 40.4912 2.279 29869.7 29871.8 -82132 2.01553e-05 0.365907 6.93157e-05
342 2 4.03062 40.4912 4.55799 43157 43159.1 13509.7 5.99858e-06 0.365794 3.38845e-05
343 2 0 39.0949 6.83699 43283.9 43286.2 15713.4 -5.58518e-07 0.544008 -7.70034e-05
344 2 3.2245 39.0949 9.11598 43284.2 43286.4 15716 9.79657e-05 0.36588 7.94435e-05
345 2 1.61225 39.0949 11.395 43284.2 43286.4 15716 0.000188206 0.365767 0.00024222
346 2 2.41837 40.4912 6.83699 43283.9 43286.2 15713.4 -9.78739e-05 0.544083 -4.70673e-05
347 2 0.806124 40.4912 9.11598 43284.3 43286.4 15716 -3.25916e-05 0.365949 -0.000108854
348 2 4.03062 40.4912 11.395 43284.2 43286.4 15716 0.000210202 0.365818 0.000282049
349 2 0 39.0949 13.674 43283.9 43286.2 15714.9 -1.57217e-06 0.544019 0.00048541
350 2 3.2245 39.0949 15.953 43284.3 43286.4 15716 -0.000409996 0.366172 -0.000111832
351 2 1.61225 39.0949 18.232 43284.2 43286.3 15714.5 -0.000512452 0.366208 -0.000200129
352 2 2.41837 40.4912 13.674 43283.9 43286.2 15714.9 0.000235195 0.543869 0.000292425
353 2 0.806124 40.4912 15.953 43284.3 43286.4 15716 4.96142e-05 0.365907 0.000263549
354 2 4.03062 40.4912 18.232 43284.2 43286.3 15714.5 -0.000514185 0.366161 -0.00032532
355 2 0 39.0949 20.511 43156.6 43159 13508.6 -7.65258e-06 0.544008 -0.000345171