ITEM: TIMESTEP
0
ITEM: NUMBER OF ATOMS
3074
ITEM: BOX BOUNDS pp pp pp
0.0000000000000000e+00 3.8693948398131120e+01
0.0000000000000000e+00 4.4679925159782847e+01
0.0000000000000000e+00 6.0000000000000000e+01
ITEM: ATOMS id type x y z v_stress_xx v_stress_yy v_stress_zz v_stress_xy v_stress_xz v_stress_yz
1 2 0 0 0 2596.05 2596.03 -99.0248 -3.54588e-06 -0.00342965 1.14106e-06
2 2 3.2245 0 2.279 -1940.76 -1940.9 5336.46 1.64805e-06 -0.0237598 1.10744e-05
3 2 1.61225 0 4.55799 -2804.09 -2804.23 -877.783 2.26498e-08 -0.0237635 1.75734e-05
4 2 2.41837 1.39625 0 2596.05 2596.03 -99.0248 4.7244e-06 -0.0034265 7.79971e-07
5 2 0.806124 1.39625 2.279 -1940.76 -1940.9 5336.46 -8.90225e-08 -0.0237754 2.20042e-05
6 2 4.03062 1.39625 4.55799 -2804.09 -2804.23 -877.783 -1.26954e-05 -0.023755 1.93296e-05
7 2 0 0 6.83699 -2812.33 -2812.48 -1020.96 1.02139e-05 -0.0353422 -6.67068e-06
8 2 3.2245 0 9.11598 -2812.36 -2812.5 -1021.13 -4.27372e-06 -0.0237988 -1.76218e-05
9 2 1.61225 0 11.395 -2812.36 -2812.5 -1021.13 1.07282e-07 -0.0237831 -1.29127e-05
10 2 2.41837 1.39625 6.83699 -2812.33 -2812.48 -1020.96 -1.35385e-05 -0.0353492 -1.03102e-05
11 2 0.806124 1.39625 9.11598 -2812.36 -2812.5 -1021.13 -7.16382e-07 -0.0237773 -3.2224e-05
12 2 4.03062 1.39625 11.395 -2812.36 -2812.5 -1021.13 2.12366e-05 -0.0237752 6.5989e-06
13 2 0 0 13.674 -2812.34 -2812.49 -1021.06 -1.55234e-05 -0.0353509 9.11171e-06
14 2 3.2245 0 15.953 -2812.36 -2812.5 -1021.13 1.22566e-05 -0.023759 1.39897e-05
15 2 1.61225 0 18.232 -2812.36 -2812.49 -1021.04 -2.45065e-07 -0.0237699 1.19962e-05
16 2 2.41837 1.39625 13.674 -2812.34 -2812.49 -1021.06 2.18741e-05 -0.0353391 2.33536e-05
17 2 0.806124 1.39625 15.953 -2812.36 -2812.5 -1021.13 2.16903e-06 -0.0237718 2.8803e-05
18 2 4.03062 1.39625 18.232 -2812.36 -2812.49 -1021.04 -2.4336e-05 -0.0237904 -1.44399e-05
19 2 0 0 20.511 -2804.07 -2804.22 -877.708 9.32676e-06 -0.0353425 -3.07343e-06
20 2 3.2245 0 22.79 -1940.76 -1940.9 5336.46 -7.48112e-06 -0.0237849 -3.28442e-06
21 2 1.61225 0 25.069 1639.46 1639.45 -62.5456 1.86185e-08 -0.000747922 -1.24367e-06
22 2 2.41837 1.39625 20.511 -2804.07 -2804.22 -877.708 -1.86109e-05 -0.035357 -1.38453e-05
23 2 0.806124 1.39625 22.79 -1940.76 -1940.9 5336.46 3.26401e-06 -0.0237793 -7.59172e-06
24 2 4.03062 1.39625 25.069 1639.46 1639.45 -62.5456 -7.00993e-06 -0.000746016 1.13147e-06
25 2 0 2.7925 0 2596.05 2596.03 -99.0248 -4.47649e-06 -0.00342852 -5.1354e-07
26 2 3.2245 2.7925 2.279 -1940.76 -1940.9 5336.46 6.79645e-06 -0.0237707 2.02716e-05
27 2 1.61225 2.7925 4.55799 -2804.09 -2804.23 -877.783 -7.62595e-07 -0.0237686 4.06972e-05
28 2 2.41837 4.18874 0 2596.05 2596.03 -99.0248 5.96342e-06 -0.00342642 -2.99043e-08
29 2 0.806124 4.18874 2.279 -1940.76 -1940.9 5336.46 1.40161e-06 -0.0237728 2.17224e-05
30 2 4.03062 4.18874 4.55799 -2804.09 -2804.23 -877.783 -1.44471e-05 -0.0237845 1.68688e-05
31 2 0 2.7925 6.83699 -2812.33 -2812.48 -1020.96 1.19691e-05 -0.0353453 -7.00157e-06
32 2 3.2245 2.7925 9.11598 -2812.36 -2812.5 -1021.13 -6.57727e-06 -0.0237763 -2.19009e-05
33 2 1.61225 2.7925 11.395 -2812.36 -2812.5 -1021.13 4.06001e-06 -0.0237737 -5.13912e-06
34 2 2.41837 4.18874 6.83699 -2812.33 -2812.48 -1020.96 -1.39159e-05 -0.0353508 -1.16899e-05
35 2 0.806124 4.18874 9.11598 -2812.36 -2812.5 -1021.13 -4.57086e-06 -0.0237826 -2.29097e-05
36 2 4.03062 4.18874 11.395 -2812.36 -2812.5 -1021.13 1.89177e-05 -0.0237596 1.33601e-05
37 2 0 2.7925 13.674 -2812.34 -2812.49 -1021.06 -7.5709e-06 -0.0353474 2.52359e-05
38 2 3.2245 2.7925 15.953 -2812.36 -2812.5 -1021.13 -5.29152e-06 -0.023786 1.11728e-05
39 2 1.61225 2.7925 18.232 -2812.36 -2812.49 -1021.04 -2.75239e-06 -0.0237808 -2.27711e-06
40 2 2.41837 4.18874 13.674 -2812.34 -2812.49 -1021.06 4.50882e-06 -0.0353461 2.97887e-05
41 2 0.806124 4.18874 15.953 -2812.36 -2812.5 -1021.13 1.32187e-05 -0.0237662 1.53238e-05
42 2 4.03062 4.18874 18.232 -2812.36 -2812.49 -1021.04 -6.57069e-05 -0.0238061 -2.47489e-05
43 2 0 2.7925 20.511 -2804.07 -2804.22 -877.708 2.14789e-05 -0.0353395 -1.74787e-05
44 2 3.2245 2.7925 22.79 -1940.76 -1940.9 5336.46 -2.1684e-05 -0.0237805 -7.58305e-06
45 2 1.61225 2.7925 25.069 1639.46 1639.45 -62.5456 -3.88764e-06 -0.000746913 -6.0118e-07
46 2 2.41837 4.18874 20.511 -2804.07 -2804.22 -877.708 -4.23622e-05 -0.0353609 -3.61901e-05
47 2 0.806124 4.18874 22.79 -1940.76 -1940.9 5336.46 -1.19249e-05 -0.0237831 -1.05917e-05
48 2 4.03062 4.18874 25.069 1639.46 1639.45 -62.5456 1.0584e-05 -0.000743374 2.74109e-06
49 2 0 5.58499 0 2596.05 2596.03 -99.0248 -9.77124e-07 -0.00342726 9.86255e-08
50 2 3.2245 5.58499 2.279 -1940.76 -1940.9 5336.46 1.59035e-06 -0.0237832 9.37053e-06
51 2 1.61225 5.58499 4.55799 -2804.09 -2804.23 -877.783 -3.92908e-06 -0.0237785 1.57811e-05
52 2 2.41837 6.98124 0 2596.05 2596.03 -99.0248 1.72223e-06 -0.00342721 1.50547e-06
53 2 0.806124 6.98124 2.279 -1940.76 -1940.9 5336.46 1.56626e-06 -0.0237732 5.72402e-06
54 2 4.03062 6.98124 4.55799 -2804.09 -2804.23 -877.783 -1.03666e-05 -0.0237886 1.45111e-06
55 2 0 5.58499 6.83699 -2812.33 -2812.48 -1020.96 -1.36136e-06 -0.0353566 -1.04411e-05
56 2 3.2245 5.58499 9.11598 -2812.36 -2812.5 -1021.13 1.94482e-05 -0.0237481 8.14047e-06
57 2 1.61225 5.58499 11.395 -2812.36 -2812.5 -1021.13 1.10711e-05 -0.0237654 3.07257e-05
58 2 2.41837 6.98124 6.83699 -2812.33 -2812.48 -1020.96 5.96195e-06 -0.0353325 -4.4398e-06
59 2 0.806124 6.98124 9.11598 -2812.36 -2812.5 -1021.13 1.1426e-06 -0.0237772 1.30985e-05
60 2 4.03062 6.98124 11.395 -2812.36 -2812.5 -1021.13 -3.17961e-05 -0.0238204 -2.46971e-05
61 2 0 5.58499 13.674 -2812.34 -2812.49 -1021.06 2.75268e-05 -0.0353207 2.69877e-05
62 2 3.2245 5.58499 15.953 -2812.36 -2812.5 -1021.13 -8.09467e-05 -0.0238224 -2.59357e-05
63 2 1.61225 5.58499 18.232 -2812.36 -2812.49 -1021.04 -4.41996e-05 -0.0237957 -4.8613e-05
64 2 2.41837 6.98124 13.674 -2812.34 -2812.49 -1021.06 -5.63187e-05 -0.0353975 -1.06493e-05
65 2 0.806124 6.98124 15.953 -2812.36 -2812.5 -1021.13 -1.40339e-05 -0.0237852 -2.9722e-05
66 2 4.03062 6.98124 18.232 -2812.36 -2812.49 -1021.04 0.000121827 -0.0236721 7.56305e-05
67 2 0 5.58499 20.511 -2804.07 -2804.22 -877.708 -3.60654e-05 -0.035371 -3.30411e-05
68 2 3.2245 5.58499 22.79 -1940.76 -1940.9 5336.46 4.97515e-05 -0.0237614 6.48915e-06
69 2 1.61225 5.58499 25.069 1639.46 1639.45 -62.5456 1.10794e-06 -0.000744483 4.36042e-06
70 2 2.41837 6.98124 20.511 -2804.07 -2804.22 -877.707 8.16232e-05 -0.0352937 6.05441e-06
71 2 0.806124 6.98124 22.79 -1940.76 -1940.9 5336.46 -1.54464e-05 -0.023777 1.7947e-06
72 2 4.03062 6.98124 25.069 1639.46 1639.45 -62.5456 1.8976e-05 -0.00075542 -7.16504e-06
73 2 0 8.37749 0 2596.05 2596.03 -99.0248 2.6743e-06 -0.00342592 3.42953e-06
74 2 3.2245 8.37749 2.279 -1940.76 -1940.9 5336.46 -7.65301e-06 -0.0237905 -4.76452e-06
75 2 1.61225 8.37749 4.55799 -2804.09 -2804.23 -877.783 -5.90911e-06 -0.02378 -1.96126e-05
76 2 2.41837 9.77373 0 2596.05 2596.03 -99.0248 -2.57447e-06 -0.00343003 3.53564e-06
77 2 0.806124 9.77373 2.279 -1940.76 -1940.9 5336.46 4.38374e-07 -0.0237757 -5.93609e-06
78 2 4.03062 9.77373 4.55799 -2804.09 -2804.23 -877.783 -3.96507e-06 -0.0237567 1.10568e-06
79 2 0 8.37749 6.83699 -2812.33 -2812.48 -1020.96 -1.13821e-05 -0.0353702 -8.27243e-06
80 2 3.2245 8.37749 9.11598 -2812.36 -2812.5 -1021.13 1.61208e-05 -0.0237605 1.09363e-05
81 2 1.61225 8.37749 11.395 -2812.36 -2812.5 -1021.13 -6.5402e-06 -0.0237896 1.68843e-05
82 2 2.41837 9.77373 6.83699 -2812.33 -2812.48 -1020.96 1.66287e-05 -0.0353056 1.03229e-05
83 2 0.806124 9.77373 9.11598 -2812.36 -2812.5 -1021.13 6.98001e-06 -0.0237668 2.31607e-05
84 2 4.03062 9.77373 11.395 -2812.36 -2812.5 -1021.13 -7.44036e-05 -0.023894 -5.55082e-05
85 2 0 8.37749 13.674 -2812.34 -2812.49 -1021.06 3.00704e-05 -0.035314 -7.50396e-06
86 2 3.2245 8.37749 15.953 -2812.36 -2812.5 -1021.13 1.24824e-05 -0.0237333 2.72192e-05
87 2 1.61225 8.37749 18.232 -2812.36 -2812.49 -1021.04 1.56588e-05 -0.0237479 -1.15926e-05
88 2 2.41837 9.77373 13.674 -2812.34 -2812.49 -1021.06 -5.88102e-05 -0.0354093 -4.09258e-05
89 2 0.806124 9.77373 15.953 -2812.36 -2812.5 -1021.13 -4.32739e-05 -0.0238176 -3.35407e-05
90 2 4.03062 9.77373 18.232 -2812.36 -2812.49 -1021.04 0.000170273 -0.0236597 5.2911e-05
91 2 0 8.37749 20.511 -2804.07 -2804.22 -877.708 -9.62045e-05 -0.0353882 -6.82531e-06
92 2 3.2245 8.37749 22.79 -1940.76 -1940.9 5336.46 5.295e-05 -0.0237837 -8.46731e-06
93 2 1.61225 8.37749 25.069 1639.46 1639.45 -62.5456 1.5651e-05 -0.000748575 7.954e-07
94 2 2.41837 9.77373 20.511 -2804.07 -2804.22 -877.708 0.000164477 -0.0352831 3.28436e-05
95 2 0.806124 9.77373 22.79 -1940.76 -1940.9 5336.46 3.24253e-05 -0.023762 6.60103e-06
96 2 4.03062 9.77373 25.069 1639.46 1639.45 -62.5456 -5.15525e-05 -0.000757965 -5.22245e-06
97 2 0 11.17 0 2596.05 2596.03 -99.0248 3.2126e-06 -0.0034247 4.35291e-06
98 2 3.2245 11.17 2.279 -1940.76 -1940.9 5336.46 -9.79794e-06 -0.0237914 -7.39957e-06
99 2 1.61225 11.17 4.55799 -2804.09 -2804.23 -877.783 -3.41448e-06 -0.0237694 -1.36308e-05
100 2 2.41837 12.5662 0 2596.05 2596.03 -99.0248 -2.69147e-06 -0.00343366 8.95604e-07
101 2 0.806124 12.5662 2.279 -1940.76 -1940.9 5336.46 -8.76126e-07 -0.0237785 -5.48607e-06
102 2 4.03062 12.5662 4.55799 -2804.09 -2804.23 -877.783 4.54805e-06 -0.023727 2.03395e-05
103 2 0 11.17 6.83699 -2812.33 -2812.48 -1020.96 -6.56155e-06 -0.0353698 1.36063e-05
104 2 3.2245 11.17 9.11598 -2812.36 -2812.5 -1021.13 -2.83437e-05 -0.0238215 -2.0015e-05
105 2 1.61225 11.17 11.395 -2812.36 -2812.5 -1021.13 -3.26352e-05 -0.0238267 -3.92998e-05
106 2 2.41837 12.5662 6.83699 -2812.33 -2812.48 -1020.96 4.83503e-06 -0.0353084 2.97629e-05
107 2 0.806124 12.5662 9.11598 -2812.36 -2812.5 -1021.14 3.6666e-06 -0.0237658 7.06485e-06
108 2 4.03062 12.5662 11.395 -2812.36 -2812.5 -1021.13 -2.87032e-05 -0.0238138 1.75785e-07
109 2 0 11.17 13.674 -2812.34 -2812.49 -1021.06 -2.06801e-05 -0.0353801 -4.36705e-05
110 2 3.2245 11.17 15.953 -2812.36 -2812.5 -1021.13 0.000216002 -0.0235375 0.000115181
111 2 1.61225 11.17 18.232 -2812.36 -2812.49 -1021.04 0.000151641 -0.0236568 9.21478e-05
112 2 2.41837 12.5662 13.674 -2812.34 -2812.49 -1021.06 5.48354e-05 -0.0352526 1.92207e-06
113 2 0.806124 12.5662 15.953 -2812.36 -2812.5 -1021.13 -6.16649e-06 -0.0237971 4.25146e-05
114 2 4.03062 12.5662 18.232 -2812.36 -2812.5 -1021.04 -0.000106508 -0.0239122 -0.000101395
115 2 0 11.17 20.511 -2804.07 -2804.22 -877.708 2.50682e-05 -0.0352875 1.51571e-05
116 2 3.2245 11.17 22.79 -1940.76 -1940.9 5336.46 -7.21451e-05 -0.0238222 -2.54026e-05
117 2 1.61225 11.17 25.069 1639.46 1639.45 -62.5456 -2.40967e-06 -0.000757051 -6.73441e-06
118 2 2.41837 12.5662 20.511 -2804.07 -2804.22 -877.709 -6.51275e-05 -0.0354435 -4.0048e-05
119 2 0.806124 12.5662 22.79 -1940.76 -1940.9 5336.46 2.005e-05 -0.0237726 -8.2365e-06
120 2 4.03062 12.5662 25.069 1639.46 1639.45 -62.5455 -8.12425e-05 -0.00070732 2.78595e-05
121 2 0 13.9625 0 2596.05 2596.03 -99.0248 1.33322e-06 -0.00342449 -1.35571e-06
122 2 3.2245 13.9625 2.279 -1940.76 -1940.9 5336.46 -1.5314e-06 -0.0237865 -7.07483e-07
123 2 1.61225 13.9625 4.55799 -2804.09 -2804.23 -877.783 2.367e-06 -0.0237575 2.55504e-05
124 2 2.41837 15.3587 0 2596.05 2596.03 -99.0248 -9.55808e-08 -0.00343529 -5.82529e-06
125 2 0.806124 15.3587 2.279 -1940.76 -1940.9 5336.46 -8.70262e-07 -0.0237802 -1.04515e-06
126 2 4.03062 15.3587 4.55799 -2804.09 -2804.23 -877.783 1.34705e-05 -0.0237303 3.55141e-05
127 2 0 13.9625 6.83699 -2812.33 -2812.48 -1020.96 1.78234e-06 -0.0353501 4.61758e-05
128 2 3.2245 13.9625 9.11598 -2812.36 -2812.5 -1021.13 -6.10175e-05 -0.0238858 -3.05627e-05
129 2 1.61225 13.9625 11.395 -2812.36 -2812.5 -1021.13 -3.29701e-05 -0.0238283 -6.58837e-05
130 2 2.41837 15.3587 6.83699 -2812.33 -2812.48 -1020.96 -8.54574e-06 -0.0353484 4.4252e-05
131 2 0.806124 15.3587 9.11598 -2812.36 -2812.5 -1021.14 -3.05472e-06 -0.0237722 -5.42725e-07
132 2 4.03062 15.3587 11.395 -2812.36 -2812.5 -1021.13 5.31279e-05 -0.0235816 8.31299e-05
133 2 0 13.9625 13.674 -2812.34 -2812.49 -1021.06 -6.85295e-05 -0.0354994 -3.26181e-05
134 2 3.2245 13.9625 15.953 -2812.36 -2812.5 -1021.14 0.000114872 -0.023631 3.34953e-05
135 2 1.61225 13.9625 18.232 -2812.36 -2812.49 -1021.04 6.86393e-05 -0.0237352 5.40563e-05
136 2 2.41837 15.3587 13.674 -2812.33 -2812.49 -1021.06 0.000135291 -0.0350426 5.40794e-05
137 2 0.806124 15.3587 15.953 -2812.36 -2812.5 -1021.13 3.8947e-05 -0.0237406 8.4455e-05
138 2 4.03062 15.3587 18.232 -2812.36 -2812.49 -1021.04 -0.000433018 -0.024398 -0.000269934
139 2 0 13.9625 20.511 -2804.07 -2804.22 -877.709 0.000129305 -0.0351884 -1.54597e-05
140 2 3.2245 13.9625 22.79 -1940.76 -1940.9 5336.46 -0.000305122 -0.0238692 -2.92929e-05
141 2 1.61225 13.9625 25.069 1639.46 1639.45 -62.5456 -3.54743e-05 -0.000750215 -3.43927e-06
142 2 2.41837 15.3587 20.511 -2804.07 -2804.22 -877.709 -0.000252401 -0.0356206 -9.02006e-05
143 2 0.806124 15.3587 22.79 -1940.76 -1940.9 5336.46 -3.06557e-06 -0.023781 -6.6129e-06
144 2 4.03062 15.3587 25.069 1639.47 1639.45 -62.5455 8.75364e-05 -0.000645207 4.17581e-05
145 2 0 16.755 0 2596.05 2596.03 -99.0248 -1.38036e-07 -0.00342542 -7.75511e-06
146 2 3.2245 16.755 2.279 -1940.76 -1940.9 5336.46 6.19064e-06 -0.0237791 3.1095e-06
147 2 1.61225 16.755 4.55799 -2804.09 -2804.23 -877.783 6.87413e-06 -0.0237546 4.52084e-05
148 2 2.41837 18.1512 0 2596.05 2596.03 -99.0248 1.27422e-06 -0.00343437 -7.83361e-06
149 2 0.806124 18.1512 2.279 -1940.76 -1940.9 5336.46 2.26363e-07 -0.0237803 -9.37402e-08
150 2 4.03062 18.1512 4.55799 -2804.09 -2804.23 -877.783 1.37911e-05 -0.0237523 2.76573e-05
151 2 0 16.755 6.83699 -2812.33 -2812.48 -1020.96 3.3425e-06 -0.0353248 5.77888e-05
152 2 3.2245 16.755 9.11598 -2812.36 -2812.5 -1021.13 -4.94687e-05 -0.0239099 -6.38956e-06
153 2 1.61225 16.755 11.395 -2812.36 -2812.5 -1021.13 -7.788e-06 -0.0237712 -3.78092e-05
154 2 2.41837 18.1512 6.83699 -2812.33 -2812.48 -1020.96 -8.57366e-06 -0.0353954 3.54343e-05
155 2 0.806124 18.1512 9.11598 -2812.36 -2812.5 -1021.13 -5.89784e-06 -0.0237776 2.55777e-06
156 2 4.03062 18.1512 11.395 -2812.36 -2812.5 -1021.13 6.09044e-05 -0.0234325 7.97229e-05
157 2 0 16.755 13.674 -2812.33 -2812.48 -1021.06 -5.91441e-05 -0.0355859 8.91786e-06
158 2 3.2245 16.755 15.953 -2812.36 -2812.5 -1021.14 -1.97515e-05 -0.0238335 -3.78936e-05
159 2 1.61225 16.755 18.232 -2812.36 -2812.5 -1021.04 -4.45256e-05 -0.0238746 -1.50245e-05
160 2 2.41837 18.1512 13.674 -2812.34 -2812.49 -1021.06 9.37572e-05 -0.0349824 4.37257e-05
161 2 0.806124 18.1512 15.953 -2812.36 -2812.5 -1021.13 2.7638e-05 -0.0237339 5.06688e-05
162 2 4.03062 18.1512 18.232 -2812.36 -2812.49 -1021.04 -0.000445833 -0.0248427 -0.000236372
163 2 0 16.755 20.511 -2804.07 -2804.22 -877.709 8.87935e-05 -0.0351878 -3.43689e-05
164 2 3.2245 16.755 22.79 -1940.76 -1940.89 5336.46 -9.47051e-05 -0.0235757 8.40685e-05
165 2 1.61225 16.755 25.069 1639.46 1639.45 -62.5456 -3.33527e-05 -0.000724746 4.03091e-06
166 2 2.41837 18.1512 20.511 -2804.07 -2804.22 -877.708 -0.000273987 -0.0357715 -8.04142e-05
167 2 0.806124 18.1512 22.79 -1940.76 -1940.9 5336.46 -1.25439e-05 -0.0237843 -8.14108e-06
168 2 4.03062 18.1512 25.069 1639.47 1639.45 -62.5456 0.000137215 -0.000689566 1.00691e-05
169 2 0 19.5475 0 2596.05 2596.03 -99.0248 -1.34616e-07 -0.00342627 -5.61242e-06
170 2 3.2245 19.5475 2.279 -1940.76 -1940.9 5336.46 4.83119e-06 -0.0237736 2.15418e-06
171 2 1.61225 19.5475 4.55799 -2804.09 -2804.23 -877.783 5.88775e-06 -0.0237578 2.44062e-05
172 2 2.41837 20.9437 0 2596.05 2596.03 -99.0248 5.42704e-07 -0.00343314 -1.03158e-06
173 2 0.806124 20.9437 2.279 -1940.76 -1940.9 5336.46 9.65325e-07 -0.0237795 3.51724e-07
174 2 4.03062 20.9437 4.55799 -2804.09 -2804.23 -877.783 1.76e-06 -0.0237662 2.56687e-06
175 2 0 19.5475 6.83699 -2812.33 -2812.48 -1020.96 9.38993e-07 -0.0353115 3.09352e-05
176 2 3.2245 19.5475 9.11598 -2812.36 -2812.5 -1021.13 -1.52235e-05 -0.0238941 9.00489e-06
177 2 1.61225 19.5475 11.395 -2812.36 -2812.5 -1021.13 9.06674e-06 -0.0236964 -2.25543e-06
178 2 2.41837 20.9437 6.83699 -2812.33 -2812.48 -1020.96 -2.39673e-06 -0.0354199 1.42094e-06
179 2 0.806124 20.9437 9.11598 -2812.36 -2812.5 -1021.13 -5.36654e-06 -0.0237789 -2.72465e-07
180 2 4.03062 20.9437 11.395 -2812.36 -2812.5 -1021.13 1.50691e-05 -0.0234194 1.87716e-05
181 2 0 19.5475 13.674 -2812.33 -2812.48 -1021.06 -1.3233e-05 -0.03561 1.76448e-05
182 2 3.2245 19.5475 15.953 -2812.36 -2812.5 -1021.14 -4.6533e-05 -0.0239825 -4.25059e-05
183 2 1.61225 19.5475 18.232 -2812.36 -2812.5 -1021.04 -5.2871e-05 -0.023957 -2.27783e-05
184 2 2.41837 20.9437 13.674 -2812.34 -2812.49 -1021.06 1.79542e-05 -0.035013 6.21802e-06
185 2 0.806124 20.9437 15.953 -2812.36 -2812.5 -1021.13 7.56209e-06 -0.023767 6.75795e-06
186 2 4.03062 20.9437 18.232 -2812.36 -2812.49 -1021.04 -2.50829e-06 -0.0246407 5.56651e-06
187 2 0 19.5475 20.511 -2804.07 -2804.22 -877.71 1.96856e-05 -0.0351994 -2.28132e-05
188 2 3.2245 19.5475 22.79 -1940.75 -1940.89 5336.46 0.000233557 -0.0231769 0.000110195
189 2 1.61225 19.5475 25.069 1639.46 1639.45 -62.5456 -8.11233e-06 -0.000699163 4.86328e-06
190 2 2.41837 20.9437 20.511 -2804.07 -2804.22 -877.707 -5.28041e-05 -0.0357494 -2.44068e-06
191 2 0.806124 20.9437 22.79 -1940.76 -1940.9 5336.46 -1.41093e-05 -0.0237797 -2.02771e-06
192 2 4.03062 20.9437 25.069 1639.47 1639.45 -62.5456 3.69077e-05 -0.000748319 -3.52857e-06
193 2 0 22.34 0 2596.05 2596.03 -99.0248 2.81533e-07 -0.00342599 3.32091e-06
194 2 3.2245 22.34 2.279 -1940.76 -1940.9 5336.46 -1.67906e-06 -0.0237728 5.80568e-07
195 2 1.61225 22.34 4.55799 -2804.09 -2804.23 -877.783 8.02904e-08 -0.0237596 -1.27757e-05
196 2 2.41837 23.7362 0 2596.05 2596.03 -99.0248 -6.42604e-07 -0.00343356 6.96422e-06
197 2 0.806124 23.7362 2.279 -1940.76 -1940.9 5336.46 4.94553e-07 -0.0237785 1.67505e-06
198 2 4.03062 23.7362 4.55799 -2804.09 -2804.23 -877.783 -1.24695e-05 -0.0237628 -2.18056e-05
199 2 0 22.34 6.83699 -2812.33 -2812.48 -1020.96 -1.79534e-06 -0.0353159 -1.45462e-05
200 2 3.2245 22.34 9.11598 -2812.36 -2812.5 -1021.13 1.05098e-05 -0.0238811 -2.95342e-06
201 2 1.61225 22.34 11.395 -2812.36 -2812.5 -1021.13 8.72475e-07 -0.0236659 9.61626e-06
202 2 2.41837 23.7362 6.83699 -2812.33 -2812.48 -1020.96 3.52293e-06 -0.0354138 -3.34811e-05
203 2 0.806124 23.7362 9.11598 -2812.36 -2812.5 -1021.13 -4.79375e-06 -0.0237803 -3.82293e-06
204 2 4.03062 23.7362 11.395 -2812.36 -2812.5 -1021.13 -2.98667e-05 -0.0234615 -3.85709e-05
205 2 0 22.34 13.674 -2812.33 -2812.48 -1021.06 3.59123e-05 -0.0356092 -1.54186e-05
206 2 3.2245 22.34 15.953 -2812.36 -2812.5 -1021.14 -3.23656e-06 -0.0240394 -1.03693e-06
207 2 1.61225 22.34 18.232 -2812.36 -2812.5 -1021.04 -1.32707e-06 -0.0240042 -8.03098e-07
208 2 2.41837 23.7362 13.674 -2812.34 -2812.49 -1021.06 -4.82658e-05 -0.0350263 -2.04097e-05
209 2 0.806124 23.7362 15.953 -2812.36 -2812.5 -1021.13 9.56384e-06 -0.0237996 -3.55441e-05
210 2 4.03062 23.7362 18.232 -2812.36 -2812.49 -1021.04 0.00030925 -0.0244997 0.000156497
211 2 0 22.34 20.511 -2804.07 -2804.22 -877.71 -4.55967e-05 -0.0352032 1.13954e-05
212 2 3.2245 22.34 22.79 -1940.75 -1940.89 5336.46 6.8626e-05 -0.0231409 2.86319e-06
213 2 1.61225 22.34 25.069 1639.46 1639.45 -62.5456 8.90722e-08 -0.000691561 2.84163e-07
214 2 2.41837 23.7362 20.511 -2804.07 -2804.22 -877.707 0.000177582 -0.0357369 5.42553e-05
215 2 0.806124 23.7362 22.79 -1940.76 -1940.9 5336.46 -7.72773e-06 -0.0237734 7.79413e-06
216 2 4.03062 23.7362 25.069 1639.47 1639.45 -62.5456 -4.80452e-05 -0.000750755 -4.71636e-06
217 2 0 25.1325 0 2596.05 2596.03 -99.0248 -3.65212e-07 -0.00342493 8.37977e-06
218 2 3.2245 25.1325 2.279 -1940.76 -1940.9 5336.46 -6.03169e-06 -0.0237772 -5.78602e-07
219 2 1.61225 25.1325 4.55799 -2804.09 -2804.23 -877.783 -5.8972e-06 -0.0237574 -3.72931e-05
220 2 2.41837 26.5287 0 2596.05 2596.03 -99.0248 -4.94356e-07 -0.00343509 7.05297e-06
221 2 0.806124 26.5287 2.279 -1940.76 -1940.9 5336.46 -1.07866e-06 -0.0237777 3.1829e-06
222 2 4.03062 26.5287 4.55799 -2804.09 -2804.23 -877.783 -1.60256e-05 -0.0237473 -2.91867e-05
223 2 0 25.1325 6.83699 -2812.33 -2812.48 -1020.96 -3.35127e-06 -0.0353357 -4.79464e-05
224 2 3.2245 25.1325 9.11598 -2812.36 -2812.5 -1021.13 3.39776e-05 -0.0238867 -5.46171e-06
225 2 1.61225 25.1325 11.395 -2812.36 -2812.5 -1021.13 -7.83166e-06 -0.0236983 2.91178e-05
226 2 2.41837 26.5287 6.83699 -2812.33 -2812.48 -1020.96 8.08118e-06 -0.0353794 -4.3349e-05
227 2 0.806124 26.5287 9.11598 -2812.36 -2812.5 -1021.14 -1.08969e-06 -0.0237859 5.3068e-07
228 2 4.03062 26.5287 11.395 -2812.36 -2812.5 -1021.13 -4.40123e-05 -0.0235517 -6.62289e-05
229 2 0 25.1325 13.674 -2812.33 -2812.48 -1021.06 7.33313e-05 -0.0355726 -3.66914e-05
230 2 3.2245 25.1325 15.953 -2812.36 -2812.5 -1021.14 2.57637e-05 -0.0239465 3.70931e-05
231 2 1.61225 25.1325 18.232 -2812.36 -2812.5 -1021.04 6.31115e-05 -0.0240028 1.10019e-05
232 2 2.41837 26.5287 13.674 -2812.34 -2812.49 -1021.06 -0.00010258 -0.0350395 -2.74059e-05
233 2 0.806124 26.5287 15.953 -2812.36 -2812.5 -1021.13 1.67726e-05 -0.0237945 -8.09884e-05
234 2 4.03062 26.5287 18.232 -2812.36 -2812.49 -1021.04 0.000416247 -0.0244427 0.000250939
235 2 0 25.1325 20.511 -2804.07 -2804.22 -877.71 -7.84788e-05 -0.0352303 3.57572e-05
236 2 3.2245 25.1325 22.79 -1940.75 -1940.89 5336.46 -4.21431e-05 -0.0233564 -7.94511e-05
237 2 1.61225 25.1325 25.069 1639.46 1639.45 -62.5456 8.07152e-06 -0.000701856 -2.40304e-06
238 2 2.41837 26.5287 20.511 -2804.07 -2804.22 -877.708 0.000309664 -0.0357331 7.85461e-05
239 2 0.806124 26.5287 22.79 -1940.76 -1940.9 5336.46 8.6687e-07 -0.0237779 6.72986e-06
240 2 4.03062 26.5287 25.069 1639.47 1639.45 -62.5456 -9.74751e-05 -0.000712788 -1.57319e-05
241 2 0 27.925 0 2596.05 2596.03 -99.0248 -2.33221e-06 -0.00342442 4.26648e-06
242 2 3.2245 27.925 2.279 -1940.76 -1940.9 5336.46 -2.45414e-06 -0.0237854 7.82849e-07
243 2 1.61225 27.925 4.55799 -2804.09 -2804.23 -877.783 -6.93874e-06 -0.0237541 -2.8629e-05
244 2 2.41837 29.3212 0 2596.05 2596.03 -99.0248 1.46277e-06 -0.00343532 7.07032e-07
245 2 0.806124 29.3212 2.279 -1940.76 -1940.9 5336.46 -1.90806e-06 -0.0237768 5.7737e-06
246 2 4.03062 29.3212 4.55799 -2804.09 -2804.23 -877.783 -8.13182e-06 -0.0237376 -1.81384e-05
247 2 0 27.925 6.83699 -2812.33 -2812.48 -1020.96 1.26496e-06 -0.0353606 -5.21603e-05
248 2 3.2245 27.925 9.11598 -2812.36 -2812.5 -1021.13 5.31844e-05 -0.023883 1.34299e-05
249 2 1.61225 27.925 11.395 -2812.36 -2812.5 -1021.13 6.38069e-06 -0.0237696 5.35643e-05
250 2 2.41837 29.3212 6.83699 -2812.33 -2812.48 -1020.96 3.95373e-06 -0.0353327 -2.86734e-05
251 2 0.806124 29.3212 9.11598 -2812.36 -2812.5 -1021.14 6.59584e-06 -0.0237917 -2.7268e-06
252 2 4.03062 29.3212 11.395 -2812.36 -2812.5 -1021.13 -9.32842e-06 -0.0237078 -4.65514e-05
253 2 0 27.925 13.674 -2812.33 -2812.48 -1021.06 5.95468e-05 -0.0354604 3.6853e-06
254 2 3.2245 27.925 15.953 -2812.36 -2812.5 -1021.14 -2.20849e-05 -0.0237869 2.85282e-05
255 2 1.61225 27.925 18.232 -2812.36 -2812.49 -1021.04 6.16865e-05 -0.0239145 -1.61122e-05
256 2 2.41837 29.3212 13.674 -2812.34 -2812.49 -1021.06 -0.000100599 -0.0351444 -1.62071e-05
257 2 0.806124 29.3212 15.953 -2812.36 -2812.5 -1021.13 -1.69708e-05 -0.0237378 -7.06468e-05
258 2 4.03062 29.3212 18.232 -2812.36 -2812.49 -1021.04 0.000264976 -0.0241222 0.000204832
259 2 0 27.925 20.511 -2804.07 -2804.22 -877.71 -6.2133e-05 -0.0352717 2.98455e-05
260 2 3.2245 27.925 22.79 -1940.76 -1940.89 5336.46 0.000150503 -0.0236892 -4.81338e-05
261 2 1.61225 27.925 25.069 1639.46 1639.45 -62.5456 3.29923e-05 -0.000725777 -2.42941e-07
262 2 2.41837 29.3212 20.511 -2804.07 -2804.22 -877.708 0.000234957 -0.0355928 7.11624e-05
263 2 0.806124 29.3212 22.79 -1940.76 -1940.9 5336.46 1.39226e-05 -0.0237843 8.23612e-06
264 2 4.03062 29.3212 25.069 1639.46 1639.45 -62.5455 -4.07984e-05 -0.000696093 -3.02349e-05
265 2 0 30.7174 0 2596.05 2596.03 -99.0248 -3.41997e-06 -0.00342518 -2.77715e-06
266 2 3.2245 30.7174 2.279 -1940.76 -1940.9 5336.46 6.13499e-06 -0.0237925 4.34043e-06
267 2 1.61225 30.7174 4.55799 -2804.09 -2804.23 -877.783 -2.44212e-06 -0.0237573 2.08339e-06
268 2 2.41837 32.1137 0 2596.05 2596.03 -99.0248 2.80096e-06 -0.00343281 -3.70525e-06
269 2 0.806124 32.1137 2.279 -1940.76 -1940.9 5336.46 -5.38342e-07 -0.0237758 4.66604e-06
270 2 4.03062 32.1137 4.55799 -2804.09 -2804.23 -877.783 2.74735e-06 -0.0237519 -7.69279e-06
271 2 0 30.7174 6.83699 -2812.33 -2812.48 -1020.96 1.00401e-05 -0.0353726 -3.18676e-05
272 2 3.2245 30.7174 9.11598 -2812.36 -2812.5 -1021.13 4.37937e-05 -0.0238438 2.2913e-05
273 2 1.61225 30.7174 11.395 -2812.36 -2812.5 -1021.13 3.05549e-05 -0.0238258 4.36406e-05
274 2 2.41837 32.1137 6.83699 -2812.33 -2812.48 -1020.96 -9.02853e-06 -0.0353045 -1.02743e-05
275 2 0.806124 32.1137 9.11598 -2812.36 -2812.5 -1021.13 9.20812e-06 -0.0237902 -1.76122e-05
276 2 4.03062 32.1137 11.395 -2812.36 -2812.5 -1021.13 4.34341e-05 -0.023838 1.0318e-05
277 2 0 30.7174 13.674 -2812.34 -2812.49 -1021.06 -6.39785e-06 -0.0353392 6.26663e-05
278 2 3.2245 30.7174 15.953 -2812.36 -2812.5 -1021.14 -0.000118671 -0.0236436 -2.96592e-05
279 2 1.61225 30.7174 18.232 -2812.36 -2812.49 -1021.04 -7.70294e-05 -0.0237285 -5.05549e-05
280 2 2.41837 32.1137 13.674 -2812.34 -2812.49 -1021.06 -9.08051e-06 -0.0353249 4.4074e-06
281 2 0.806124 32.1137 15.953 -2812.36 -2812.5 -1021.13 -5.16134e-05 -0.0237163 1.71708e-05
282 2 4.03062 32.1137 18.232 -2812.36 -2812.5 -1021.04 4.04932e-05 -0.0238361 7.36304e-05
283 2 0 30.7174 20.511 -2804.07 -2804.22 -877.708 3.9321e-05 -0.0353491 -2.5736e-05
284 2 3.2245 30.7174 22.79 -1940.76 -1940.9 5336.46 0.000186125 -0.0238402 2.24889e-05
285 2 1.61225 30.7174 25.069 1639.46 1639.45 -62.5456 3.74965e-05 -0.000750378 2.69026e-06
286 2 2.41837 32.1137 20.511 -2804.07 -2804.22 -877.708 -1.51099e-06 -0.0353917 3.40887e-05
287 2 0.806124 32.1137 22.79 -1940.76 -1940.9 5336.46 2.60184e-05 -0.0237949 -1.87273e-06
288 2 4.03062 32.1137 25.069 1639.46 1639.45 -62.5456 4.50501e-05 -0.000731446 -1.48212e-05
289 2 0 33.5099 0 2596.05 2596.03 -99.0248 -1.20206e-06 -0.00342658 -5.17875e-06
290 2 3.2245 33.5099 2.279 -1940.76 -1940.9 5336.46 9.07495e-06 -0.0237937 1.55262e-06
291 2 1.61225 33.5099 4.55799 -2804.09 -2804.23 -877.783 3.23051e-06 -0.0237692 1.30114e-05
292 2 2.41837 34.9062 0 2596.05 2596.03 -99.0248 4.13844e-07 -0.00342898 -3.42321e-06
293 2 0.806124 34.9062 2.279 -1940.76 -1940.9 5336.46 1.08129e-06 -0.0237757 -6.5523e-06
294 2 4.03062 34.9062 4.55799 -2804.09 -2804.23 -877.783 1.32692e-05 -0.023779 -1.12835e-05
295 2 0 33.5099 6.83699 -2812.33 -2812.48 -1020.96 8.41282e-06 -0.0353649 -2.47715e-06
296 2 3.2245 33.5099 9.11598 -2812.36 -2812.5 -1021.13 7.3591e-06 -0.0237851 1.22445e-05
297 2 1.61225 33.5099 11.395 -2812.36 -2812.5 -1021.13 3.32696e-05 -0.0238285 3.67821e-06
298 2 2.41837 34.9062 6.83699 -2812.33 -2812.48 -1020.96 -1.17315e-05 -0.0353139 3.17146e-06
299 2 0.806124 34.9062 9.11598 -2812.36 -2812.5 -1021.13 4.9147e-07 -0.0237799 -1.38155e-05
300 2 4.03062 34.9062 11.395 -2812.36 -2812.5 -1021.13 4.17121e-05 -0.0238391 3.75392e-05
301 2 0 33.5099 13.674 -2812.34 -2812.49 -1021.06 -3.61018e-05 -0.0353093 4.86297e-05
302 2 3.2245 33.5099 15.953 -2812.36 -2812.5 -1021.13 -9.66604e-05 -0.0236664 -6.48328e-05
303 2 1.61225 33.5099 18.232 -2812.36 -2812.49 -1021.04 -0.00014489 -0.0236595 -1.10576e-05
304 2 2.41837 34.9062 13.674 -2812.34 -2812.49 -1021.06 6.17651e-05 -0.0354118 6.29827e-06
305 2 0.806124 34.9062 15.953 -2812.36 -2812.5 -1021.13 -1.48946e-05 -0.0237593 4.40151e-05
306 2 4.03062 34.9062 18.232 -2812.36 -2812.49 -1021.04 -9.96045e-05 -0.0237032 -4.52539e-05
307 2 0 33.5099 20.511 -2804.07 -2804.22 -877.707 9.15342e-05 -0.0353947 -4.56688e-05
308 2 3.2245 33.5099 22.79 -1940.76 -1940.9 5336.46 3.04594e-05 -0.0238049 2.31528e-05
309 2 1.61225 33.5099 25.069 1639.46 1639.45 -62.5456 2.57946e-06 -0.000757624 4.33928e-07
310 2 2.41837 34.9062 20.511 -2804.07 -2804.22 -877.708 -0.00014079 -0.0352807 2.95591e-06
311 2 0.806124 34.9062 22.79 -1940.76 -1940.9 5336.46 -1.93955e-05 -0.023781 -1.01752e-05
312 2 4.03062 34.9062 25.069 1639.46 1639.45 -62.5456 1.88425e-05 -0.000752494 4.60206e-06
313 2 0 36.3024 0 2596.05 2596.03 -99.0248 2.91366e-06 -0.00342788 -3.12298e-06
314 2 3.2245 36.3024 2.279 -1940.76 -1940.9 5336.46 3.22153e-06 -0.0237868 -1.00643e-05
315 2 1.61225 36.3024 4.55799 -2804.09 -2804.23 -877.783 5.75077e-06 -0.02378 -1.13917e-05
316 2 2.41837 37.6987 0 2596.05 2596.03 -99.0248 -4.48119e-06 -0.00342621 -1.40659e-06
317 2 0.806124 37.6987 2.279 -1940.76 -1940.9 5336.46 8.10582e-07 -0.023777 -2.1424e-05
318 2 4.03062 37.6987 4.55799 -2804.09 -2804.23 -877.783 1.89465e-05 -0.0237847 -2.00128e-05
319 2 0 36.3024 6.83699 -2812.33 -2812.48 -1020.96 -6.16705e-06 -0.0353501 1.8006e-05
320 2 3.2245 36.3024 9.11598 -2812.36 -2812.5 -1021.13 -1.83384e-05 -0.0237525 5.06725e-06
321 2 1.61225 36.3024 11.395 -2812.36 -2812.5 -1021.13 7.1516e-06 -0.0237904 -2.05676e-05
322 2 2.41837 37.6987 6.83699 -2812.33 -2812.48 -1020.96 4.63391e-06 -0.0353427 1.1227e-05
323 2 0.806124 37.6987 9.11598 -2812.36 -2812.5 -1021.13 -6.54421e-06 -0.0237711 1.86942e-05
324 2 4.03062 37.6987 11.395 -2812.36 -2812.5 -1021.13 -2.09982e-06 -0.0237847 1.48608e-05
325 2 0 36.3024 13.674 -2812.34 -2812.49 -1021.06 -9.9544e-06 -0.0353355 -1.40231e-05
326 2 3.2245 36.3024 15.953 -2812.36 -2812.5 -1021.13 4.08042e-05 -0.0237912 -1.76875e-05
327 2 1.61225 36.3024 18.232 -2812.36 -2812.49 -1021.04 -1.48594e-05 -0.0237499 3.37258e-05
328 2 2.41837 37.6987 13.674 -2812.34 -2812.49 -1021.06 3.20238e-05 -0.0353771 -1.45987e-05
329 2 0.806124 37.6987 15.953 -2812.36 -2812.5 -1021.13 2.04129e-05 -0.0237849 -2.97258e-06
330 2 4.03062 37.6987 18.232 -2812.36 -2812.49 -1021.04 -1.35892e-05 -0.0237568 -3.43516e-05
331 2 0 36.3024 20.511 -2804.07 -2804.22 -877.708 -3.58682e-06 -0.0353521 3.08357e-05
332 2 3.2245 36.3024 22.79 -1940.76 -1940.9 5336.46 -4.58201e-05 -0.0237724 7.20392e-06
333 2 1.61225 36.3024 25.069 1639.46 1639.45 -62.5456 -1.58486e-05 -0.000748744 -3.00317e-06
334 2 2.41837 37.6987 20.511 -2804.07 -2804.22 -877.708 -1.79212e-05 -0.0353262 1.38323e-05