ITEM: TIMESTEP
0
ITEM: NUMBER OF ATOMS
3074
ITEM: BOX BOUNDS pp pp pp
0.0000000000000000e+00 3.8693948398131120e+01
0.0000000000000000e+00 4.4679925159782847e+01
0.0000000000000000e+00 6.0000000000000000e+01
ITEM: ATOMS id type x y z v_stress_xx v_stress_yy v_stress_zz v_stress_xy v_stress_xz v_stress_yz
1 2 0 0 0 2596.05 2596.03 -99.025 -3.80013e-07 -0.00342817 -1.3512e-06
2 2 3.2245 0 2.279 -1940.76 -1940.9 5336.46 2.58478e-06 -0.023768 3.43745e-06
3 2 1.61225 0 4.55799 -2804.09 -2804.23 -877.784 2.67667e-07 -0.0237663 8.96781e-06
4 2 2.41837 1.39625 0 2596.05 2596.03 -99.025 2.34326e-06 -0.00342672 -2.01729e-06
5 2 0.806124 1.39625 2.279 -1940.76 -1940.9 5336.46 1.01561e-06 -0.023775 6.71967e-06
6 2 4.03062 1.39625 4.55799 -2804.09 -2804.23 -877.784 -1.38558e-07 -0.0237658 4.89313e-06
7 2 0 0 6.83699 -2812.33 -2812.49 -1020.96 1.27765e-06 -0.0353462 1.1335e-06
8 2 3.2245 0 9.11598 -2812.36 -2812.5 -1021.14 -4.76435e-06 -0.0237862 -3.62226e-06
9 2 1.61225 0 11.395 -2812.36 -2812.5 -1021.14 1.50116e-06 -0.0237791 -1.88603e-06
10 2 2.41837 1.39625 6.83699 -2812.33 -2812.49 -1020.96 -7.89548e-06 -0.0353507 -2.56062e-06
11 2 0.806124 1.39625 9.11598 -2812.36 -2812.5 -1021.14 -2.32109e-06 -0.0237771 -9.71646e-06
12 2 4.03062 1.39625 11.395 -2812.36 -2812.5 -1021.14 1.40676e-05 -0.0237676 1.85719e-05
13 2 0 0 13.674 -2812.34 -2812.49 -1021.06 -3.05529e-06 -0.0353482 7.58944e-06
14 2 3.2245 0 15.953 -2812.36 -2812.5 -1021.14 8.49484e-06 -0.0237659 5.97047e-06
15 2 1.61225 0 18.232 -2812.36 -2812.5 -1021.04 1.33387e-06 -0.0237734 4.66765e-06
16 2 2.41837 1.39625 13.674 -2812.34 -2812.49 -1021.06 1.76231e-05 -0.0353366 2.10842e-05
17 2 0.806124 1.39625 15.953 -2812.36 -2812.5 -1021.14 4.73525e-06 -0.0237735 1.92547e-05
18 2 4.03062 1.39625 18.232 -2812.36 -2812.5 -1021.04 -3.43228e-05 -0.0237937 -2.26216e-05
19 2 0 0 20.511 -2804.07 -2804.22 -877.709 2.11402e-06 -0.0353446 -2.65579e-06
20 2 3.2245 0 22.79 -1940.76 -1940.9 5336.46 -1.09147e-05 -0.0237848 -3.6389e-06
21 2 1.61225 0 25.069 1639.46 1639.45 -62.5457 -2.05513e-06 -0.000747782 -9.78044e-07
22 2 2.41837 1.39625 20.511 -2804.07 -2804.22 -877.709 -2.86034e-05 -0.0353609 -1.68901e-05
23 2 0.806124 1.39625 22.79 -1940.76 -1940.9 5336.46 -4.65479e-06 -0.0237802 -7.73228e-06
24 2 4.03062 1.39625 25.069 1639.46 1639.45 -62.5457 -3.09324e-06 -0.000745747 1.87045e-06
25 2 0 2.7925 0 2596.05 2596.03 -99.025 -4.10039e-07 -0.00342832 -2.56763e-06
26 2 3.2245 2.7925 2.279 -1940.76 -1940.9 5336.46 4.05238e-06 -0.0237707 5.89389e-06
27 2 1.61225 2.7925 4.55799 -2804.09 -2804.23 -877.784 -4.02382e-07 -0.0237728 1.30213e-05
28 2 2.41837 4.18874 0 2596.05 2596.03 -99.025 2.33257e-06 -0.00342569 -1.08999e-06
29 2 0.806124 4.18874 2.279 -1940.76 -1940.9 5336.46 8.90651e-07 -0.0237757 7.50357e-06
30 2 4.03062 4.18874 4.55799 -2804.09 -2804.23 -877.784 -5.31064e-06 -0.0237756 1.24383e-06
31 2 0 2.7925 6.83699 -2812.33 -2812.49 -1020.96 1.10797e-06 -0.0353453 -3.70862e-06
32 2 3.2245 2.7925 9.11598 -2812.36 -2812.5 -1021.14 3.23848e-06 -0.0237734 1.96027e-06
33 2 1.61225 2.7925 11.395 -2812.36 -2812.5 -1021.14 9.75779e-06 -0.0237666 1.44397e-05
34 2 2.41837 4.18874 6.83699 -2812.33 -2812.48 -1020.96 -3.94954e-06 -0.0353504 -7.34167e-06
35 2 0.806124 4.18874 9.11598 -2812.36 -2812.5 -1021.14 1.55281e-06 -0.0237733 -4.09674e-06
36 2 4.03062 4.18874 11.395 -2812.36 -2812.5 -1021.14 7.62071e-06 -0.0237754 8.31913e-06
37 2 0 2.7925 13.674 -2812.34 -2812.49 -1021.06 -5.98895e-07 -0.0353476 3.07954e-05
38 2 3.2245 2.7925 15.953 -2812.36 -2812.5 -1021.14 -2.39543e-05 -0.0237911 -4.55342e-06
39 2 1.61225 2.7925 18.232 -2812.36 -2812.5 -1021.04 -2.57807e-05 -0.0237913 -1.24641e-05
40 2 2.41837 4.18874 13.674 -2812.34 -2812.49 -1021.06 -1.18788e-05 -0.0353577 1.77037e-05
41 2 0.806124 4.18874 15.953 -2812.36 -2812.5 -1021.14 -9.35656e-06 -0.0237815 7.00322e-06
42 2 4.03062 4.18874 18.232 -2812.36 -2812.5 -1021.04 -1.8803e-05 -0.0237753 4.85673e-06
43 2 0 2.7925 20.511 -2804.07 -2804.22 -877.709 7.69935e-06 -0.0353443 -2.2172e-05
44 2 3.2245 2.7925 22.79 -1940.76 -1940.9 5336.46 -8.64605e-06 -0.0237769 -1.97303e-06
45 2 1.61225 2.7925 25.069 1639.46 1639.45 -62.5457 -3.16282e-06 -0.0007456 -1.3807e-08
46 2 2.41837 4.18874 20.511 -2804.07 -2804.22 -877.709 -2.03866e-05 -0.0353467 -1.84131e-05
47 2 0.806124 4.18874 22.79 -1940.76 -1940.9 5336.46 -3.75893e-06 -0.0237778 -9.23837e-06
48 2 4.03062 4.18874 25.069 1639.46 1639.45 -62.5457 1.26359e-05 -0.000746725 -7.25214e-07
49 2 0 5.58499 0 2596.05 2596.03 -99.025 -8.59541e-08 -0.00342826 6.3207e-07
50 2 3.2245 5.58499 2.279 -1940.76 -1940.9 5336.46 -1.63172e-06 -0.0237759 2.45826e-06
51 2 1.61225 5.58499 4.55799 -2804.09 -2804.23 -877.784 -5.07325e-06 -0.0237784 -1.487e-06
52 2 2.41837 6.98124 0 2596.05 2596.03 -99.025 3.98831e-07 -0.00342649 2.19661e-06
53 2 0.806124 6.98124 2.279 -1940.76 -1940.9 5336.46 -6.63272e-07 -0.0237772 4.7342e-06
54 2 4.03062 6.98124 4.55799 -2804.09 -2804.23 -877.784 -9.6888e-06 -0.0237681 1.371e-06
55 2 0 5.58499 6.83699 -2812.33 -2812.48 -1020.96 -1.00678e-06 -0.0353484 -1.63885e-05
56 2 3.2245 5.58499 9.11598 -2812.36 -2812.5 -1021.14 2.1361e-05 -0.0237588 1.16595e-05
57 2 1.61225 5.58499 11.395 -2812.36 -2812.5 -1021.14 8.49167e-06 -0.023773 3.0694e-05
58 2 2.41837 6.98124 6.83699 -2812.33 -2812.48 -1020.96 9.11104e-06 -0.0353265 -3.38857e-06
59 2 0.806124 6.98124 9.11598 -2812.36 -2812.5 -1021.14 7.33428e-06 -0.0237683 1.25246e-05
60 2 4.03062 6.98124 11.395 -2812.36 -2812.5 -1021.14 -3.34261e-05 -0.0238308 -3.27873e-05
61 2 0 5.58499 13.674 -2812.34 -2812.49 -1021.06 8.856e-06 -0.0353379 2.91286e-05
62 2 3.2245 5.58499 15.953 -2812.36 -2812.5 -1021.14 -5.85362e-05 -0.0238043 -8.43752e-06
63 2 1.61225 5.58499 18.232 -2812.36 -2812.5 -1021.04 -3.51029e-05 -0.0237826 -3.535e-05
64 2 2.41837 6.98124 13.674 -2812.34 -2812.49 -1021.06 -6.20324e-05 -0.0354088 -1.29695e-05
65 2 0.806124 6.98124 15.953 -2812.36 -2812.5 -1021.14 -2.2596e-05 -0.0237874 -3.02117e-05
66 2 4.03062 6.98124 18.232 -2812.36 -2812.5 -1021.04 0.000142428 -0.0236775 8.21092e-05
67 2 0 5.58499 20.511 -2804.07 -2804.22 -877.709 -1.30739e-05 -0.0353559 -3.50569e-05
68 2 3.2245 5.58499 22.79 -1940.76 -1940.9 5336.46 5.48494e-05 -0.0237671 2.07557e-06
69 2 1.61225 5.58499 25.069 1639.46 1639.45 -62.5457 1.04463e-05 -0.000745643 2.66204e-06
70 2 2.41837 6.98124 20.511 -2804.07 -2804.22 -877.709 0.000127799 -0.0352798 1.63515e-05
71 2 0.806124 6.98124 22.79 -1940.76 -1940.9 5336.46 2.59924e-05 -0.0237713 6.41566e-06
72 2 4.03062 6.98124 25.069 1639.46 1639.45 -62.5457 -4.7196e-06 -0.000754759 -7.61875e-06
73 2 0 8.37749 0 2596.05 2596.03 -99.025 1.74819e-07 -0.00342783 4.76886e-06
74 2 3.2245 8.37749 2.279 -1940.76 -1940.9 5336.46 -7.41958e-06 -0.0237823 -2.26023e-07
75 2 1.61225 8.37749 4.55799 -2804.09 -2804.23 -877.784 -6.73178e-06 -0.023774 -9.49652e-06
76 2 2.41837 9.77373 0 2596.05 2596.03 -99.025 -8.70662e-07 -0.00342986 3.79321e-06
77 2 0.806124 9.77373 2.279 -1940.76 -1940.9 5336.46 -1.81629e-06 -0.0237791 3.20797e-06
78 2 4.03062 9.77373 4.55799 -2804.09 -2804.23 -877.784 -5.63274e-06 -0.0237448 1.41801e-05
79 2 0 8.37749 6.83699 -2812.33 -2812.48 -1020.96 -2.53198e-06 -0.0353534 -1.00962e-05
80 2 3.2245 8.37749 9.11598 -2812.36 -2812.5 -1021.14 3.76109e-06 -0.0237779 -4.45462e-06
81 2 1.61225 8.37749 11.395 -2812.36 -2812.5 -1021.14 -2.20658e-05 -0.0238142 3.16017e-06
82 2 2.41837 9.77373 6.83699 -2812.33 -2812.48 -1020.96 1.25057e-05 -0.0353023 1.08458e-05
83 2 0.806124 9.77373 9.11598 -2812.36 -2812.5 -1021.14 2.01756e-06 -0.0237743 1.62717e-05
84 2 4.03062 9.77373 11.395 -2812.36 -2812.5 -1021.14 -5.30627e-05 -0.0238561 -3.73217e-05
85 2 0 8.37749 13.674 -2812.34 -2812.49 -1021.06 8.61941e-06 -0.035336 -1.9396e-05
86 2 3.2245 8.37749 15.953 -2812.36 -2812.5 -1021.14 7.81373e-05 -0.0236852 6.98632e-05
87 2 1.61225 8.37749 18.232 -2812.36 -2812.49 -1021.04 0.000108447 -0.0236783 1.11959e-05
88 2 2.41837 9.77373 13.674 -2812.34 -2812.49 -1021.06 -3.2141e-05 -0.0353756 -1.31509e-05
89 2 0.806124 9.77373 15.953 -2812.36 -2812.5 -1021.14 1.38878e-05 -0.0237496 -3.37871e-05
90 2 4.03062 9.77373 18.232 -2812.36 -2812.5 -1021.04 2.19727e-05 -0.0237844 -1.74473e-05
91 2 0 8.37749 20.511 -2804.07 -2804.22 -877.708 -4.05029e-05 -0.0353647 1.37436e-05
92 2 3.2245 8.37749 22.79 -1940.76 -1940.9 5336.46 1.7312e-06 -0.0237933 -1.45498e-05
93 2 1.61225 8.37749 25.069 1639.46 1639.45 -62.5457 1.42177e-05 -0.000755121 -1.00713e-06
94 2 2.41837 9.77373 20.511 -2804.07 -2804.22 -877.71 8.63944e-05 -0.0353364 -7.79538e-06
95 2 0.806124 9.77373 22.79 -1940.76 -1940.9 5336.46 2.61489e-05 -0.0237838 8.31063e-06
96 2 4.03062 9.77373 25.069 1639.46 1639.45 -62.5457 -6.44351e-05 -0.000740878 5.26849e-06
97 2 0 11.17 0 2596.05 2596.03 -99.025 1.11885e-07 -0.00342728 4.64557e-06
98 2 3.2245 11.17 2.279 -1940.76 -1940.9 5336.46 -6.16457e-06 -0.0237862 2.18095e-06
99 2 1.61225 11.17 4.55799 -2804.09 -2804.23 -877.784 -1.66416e-06 -0.0237597 6.36513e-06
100 2 2.41837 12.5662 0 2596.05 2596.03 -99.025 -9.17155e-08 -0.00343381 1.05306e-06
101 2 0.806124 12.5662 2.279 -1940.76 -1940.9 5336.46 -1.24239e-06 -0.0237802 3.78251e-06
102 2 4.03062 12.5662 4.55799 -2804.09 -2804.23 -877.784 3.26345e-06 -0.0237322 2.77925e-05
103 2 0 11.17 6.83699 -2812.33 -2812.48 -1020.96 -1.25974e-06 -0.0353536 2.03669e-05
104 2 3.2245 11.17 9.11598 -2812.36 -2812.5 -1021.14 -3.55165e-05 -0.023831 -2.90416e-05
105 2 1.61225 11.17 11.395 -2812.36 -2812.5 -1021.14 -4.5421e-05 -0.0238477 -3.7347e-05
106 2 2.41837 12.5662 6.83699 -2812.33 -2812.48 -1020.96 1.03689e-06 -0.0353149 2.36044e-05
107 2 0.806124 12.5662 9.11598 -2812.36 -2812.5 -1021.14 -8.50302e-06 -0.0237912 5.54311e-06
108 2 4.03062 12.5662 11.395 -2812.36 -2812.5 -1021.13 1.48199e-05 -0.0237119 4.91141e-05
109 2 0 11.17 13.674 -2812.34 -2812.49 -1021.06 -7.91455e-06 -0.0353583 -6.44219e-05
110 2 3.2245 11.17 15.953 -2812.36 -2812.5 -1021.14 0.000154997 -0.0236104 7.639e-05
111 2 1.61225 11.17 18.232 -2812.36 -2812.49 -1021.04 0.000191905 -0.0236308 6.45771e-05
112 2 2.41837 12.5662 13.674 -2812.34 -2812.49 -1021.06 9.54905e-05 -0.0351676 4.28057e-05
113 2 0.806124 12.5662 15.953 -2812.36 -2812.5 -1021.13 8.97656e-05 -0.0236593 4.26565e-05
114 2 4.03062 12.5662 18.232 -2812.36 -2812.5 -1021.04 -0.000177353 -0.0239812 -0.000128752
115 2 0 11.17 20.511 -2804.07 -2804.22 -877.709 6.13195e-06 -0.0353294 4.78051e-05
116 2 3.2245 11.17 22.79 -1940.76 -1940.9 5336.46 -0.000139062 -0.0238344 -3.2431e-05
117 2 1.61225 11.17 25.069 1639.46 1639.45 -62.5457 -2.28364e-05 -0.000758974 -4.31618e-06
118 2 2.41837 12.5662 20.511 -2804.07 -2804.22 -877.71 -0.00012634 -0.0354877 -6.16454e-05
119 2 0.806124 12.5662 22.79 -1940.76 -1940.9 5336.46 -9.53537e-06 -0.0237882 -4.36258e-06
120 2 4.03062 12.5662 25.069 1639.46 1639.45 -62.5456 -1.78164e-05 -0.000675538 4.3177e-05
121 2 0 13.9625 0 2596.05 2596.03 -99.025 -8.13402e-08 -0.00342698 -3.4705e-07
122 2 3.2245 13.9625 2.279 -1940.76 -1940.9 5336.46 1.11344e-06 -0.023785 5.88314e-06
123 2 1.61225 13.9625 4.55799 -2804.09 -2804.23 -877.784 5.80914e-06 -0.0237466 3.05512e-05
124 2 2.41837 15.3587 0 2596.05 2596.03 -99.025 1.24283e-06 -0.00343575 -3.45856e-06
125 2 0.806124 15.3587 2.279 -1940.76 -1940.9 5336.46 3.15189e-07 -0.0237797 3.23271e-06
126 2 4.03062 15.3587 4.55799 -2804.09 -2804.23 -877.784 9.30408e-06 -0.0237433 2.86356e-05
127 2 0 13.9625 6.83699 -2812.33 -2812.48 -1020.96 7.65239e-07 -0.0353475 4.69319e-05
128 2 3.2245 13.9625 9.11598 -2812.36 -2812.5 -1021.14 -5.56788e-05 -0.0238824 -3.00469e-05
129 2 1.61225 13.9625 11.395 -2812.36 -2812.5 -1021.14 -3.3971e-05 -0.0238254 -4.76184e-05
130 2 2.41837 15.3587 6.83699 -2812.33 -2812.48 -1020.96 -8.76335e-06 -0.03536 2.69038e-05
131 2 0.806124 15.3587 9.11598 -2812.36 -2812.5 -1021.14 -1.27324e-05 -0.0238073 -1.67528e-06
132 2 4.03062 15.3587 11.395 -2812.36 -2812.5 -1021.13 8.18542e-05 -0.0234938 0.000113053
133 2 0 13.9625 13.674 -2812.34 -2812.49 -1021.06 -2.64403e-05 -0.0354064 -5.00391e-05
134 2 3.2245 13.9625 15.953 -2812.36 -2812.5 -1021.14 2.24745e-05 -0.0237599 -6.44765e-06
135 2 1.61225 13.9625 18.232 -2812.36 -2812.5 -1021.04 2.42816e-05 -0.023809 1.2272e-05
136 2 2.41837 15.3587 13.674 -2812.34 -2812.49 -1021.06 0.000141224 -0.0349947 6.69149e-05
137 2 0.806124 15.3587 15.953 -2812.36 -2812.5 -1021.13 8.86778e-05 -0.023642 8.57799e-05
138 2 4.03062 15.3587 18.232 -2812.36 -2812.49 -1021.04 -0.0006543 -0.0246752 -0.000390534
139 2 0 13.9625 20.511 -2804.07 -2804.22 -877.71 3.24869e-05 -0.0353077 1.74696e-06
140 2 3.2245 13.9625 22.79 -1940.76 -1940.89 5336.46 -0.000407053 -0.0237691 1.7402e-05
141 2 1.61225 13.9625 25.069 1639.46 1639.45 -62.5457 -5.31304e-05 -0.000739307 4.25983e-07
142 2 2.41837 15.3587 20.511 -2804.07 -2804.22 -877.709 -0.000377282 -0.0357643 -0.000119896
143 2 0.806124 15.3587 22.79 -1940.76 -1940.9 5336.46 1.74334e-05 -0.0237693 6.84502e-06
144 2 4.03062 15.3587 25.069 1639.47 1639.45 -62.5457 0.000174116 -0.000657986 3.90079e-05
145 2 0 16.755 0 2596.05 2596.03 -99.025 -1.23594e-07 -0.00342698 -4.46062e-06
146 2 3.2245 16.755 2.279 -1940.76 -1940.9 5336.46 5.53275e-06 -0.0237802 5.41269e-06
147 2 1.61225 16.755 4.55799 -2804.09 -2804.23 -877.784 8.56614e-06 -0.0237434 3.44495e-05
148 2 2.41837 18.1512 0 2596.05 2596.03 -99.025 1.29715e-06 -0.00343557 -4.26533e-06
149 2 0.806124 18.1512 2.279 -1940.76 -1940.9 5336.46 9.45095e-07 -0.0237784 1.27646e-06
150 2 4.03062 18.1512 4.55799 -2804.09 -2804.23 -877.784 7.8344e-06 -0.0237623 1.70076e-05
151 2 0 16.755 6.83699 -2812.33 -2812.48 -1020.96 1.12776e-06 -0.0353403 4.53114e-05
152 2 3.2245 16.755 9.11598 -2812.36 -2812.5 -1021.14 -3.84365e-05 -0.0238909 -6.49803e-06
153 2 1.61225 16.755 11.395 -2812.36 -2812.5 -1021.14 -1.13925e-06 -0.0237331 -2.14241e-05
154 2 2.41837 18.1512 6.83699 -2812.33 -2812.48 -1020.96 -7.50097e-06 -0.0354038 1.78869e-05
155 2 0.806124 18.1512 9.11598 -2812.36 -2812.5 -1021.14 -8.89678e-06 -0.0238159 -1.46025e-06
156 2 4.03062 18.1512 11.395 -2812.36 -2812.5 -1021.13 5.98208e-05 -0.0234182 7.40848e-05
157 2 0 16.755 13.674 -2812.34 -2812.49 -1021.06 -2.21945e-05 -0.0354476 4.89773e-06
158 2 3.2245 16.755 15.953 -2812.36 -2812.5 -1021.14 -1.25718e-05 -0.0238157 -1.45622e-05
159 2 1.61225 16.755 18.232 -2812.36 -2812.5 -1021.04 -6.17098e-05 -0.023949 -2.32424e-05
160 2 2.41837 18.1512 13.674 -2812.34 -2812.49 -1021.06 7.53861e-05 -0.0350008 3.54192e-05
161 2 0.806124 18.1512 15.953 -2812.36 -2812.5 -1021.14 3.46351e-05 -0.0237082 4.77229e-05
162 2 4.03062 18.1512 18.232 -2812.36 -2812.49 -1021.04 -0.00053581 -0.0248912 -0.000274765
163 2 0 16.755 20.511 -2804.07 -2804.22 -877.711 6.63158e-06 -0.0353334 -5.37077e-06
164 2 3.2245 16.755 22.79 -1940.75 -1940.89 5336.46 0.000146571 -0.0230631 0.000218259
165 2 1.61225 16.755 25.069 1639.46 1639.45 -62.5457 -3.88121e-05 -0.000699355 6.41396e-06
166 2 2.41837 18.1512 20.511 -2804.07 -2804.22 -877.708 -0.000376225 -0.0359898 -9.18621e-05
167 2 0.806124 18.1512 22.79 -1940.76 -1940.9 5336.46 5.18368e-06 -0.0237767 1.88629e-06
168 2 4.03062 18.1512 25.069 1639.47 1639.45 -62.5457 0.000136431 -0.000743293 4.48668e-06
169 2 0 19.5475 0 2596.05 2596.03 -99.025 -7.22351e-09 -0.00342705 -2.73158e-06
170 2 3.2245 19.5475 2.279 -1940.76 -1940.9 5336.46 3.07569e-06 -0.0237764 2.14131e-06
171 2 1.61225 19.5475 4.55799 -2804.09 -2804.23 -877.784 4.401e-06 -0.0237458 1.473e-05
172 2 2.41837 20.9437 0 2596.05 2596.03 -99.025 1.54775e-07 -0.00343509 -1.006e-07
173 2 0.806124 20.9437 2.279 -1940.76 -1940.9 5336.46 2.70002e-07 -0.0237776 2.10745e-07
174 2 4.03062 20.9437 4.55799 -2804.09 -2804.23 -877.784 -1.08299e-07 -0.0237712 -1.82971e-08
175 2 0 19.5475 6.83699 -2812.33 -2812.48 -1020.96 2.99796e-07 -0.0353372 1.86043e-05
176 2 3.2245 19.5475 9.11598 -2812.36 -2812.5 -1021.14 -9.65706e-06 -0.023868 5.05635e-06
177 2 1.61225 19.5475 11.395 -2812.36 -2812.5 -1021.13 9.11518e-06 -0.0236438 5.77873e-07
178 2 2.41837 20.9437 6.83699 -2812.33 -2812.48 -1020.96 -7.47713e-07 -0.0354215 -7.86401e-07
179 2 0.806124 20.9437 9.11598 -2812.36 -2812.5 -1021.14 -1.53016e-06 -0.0238178 -2.4828e-07
180 2 4.03062 20.9437 11.395 -2812.36 -2812.5 -1021.13 2.87982e-06 -0.0234309 3.32848e-06
181 2 0 19.5475 13.674 -2812.33 -2812.49 -1021.06 -1.72838e-06 -0.035461 1.49402e-05
182 2 3.2245 19.5475 15.953 -2812.36 -2812.5 -1021.14 -1.53528e-05 -0.0238865 -1.36318e-05
183 2 1.61225 19.5475 18.232 -2812.36 -2812.5 -1021.04 -3.9492e-05 -0.0240202 -1.61678e-05
184 2 2.41837 20.9437 13.674 -2812.34 -2812.49 -1021.06 1.3192e-06 -0.0350418 -2.98051e-08
185 2 0.806124 20.9437 15.953 -2812.36 -2812.5 -1021.14 1.87748e-06 -0.0237522 -1.02304e-06
186 2 4.03062 20.9437 18.232 -2812.36 -2812.49 -1021.04 6.46413e-05 -0.0244669 3.89858e-05
187 2 0 19.5475 20.511 -2804.07 -2804.22 -877.712 -1.6911e-07 -0.0353497 6.91053e-07
188 2 3.2245 19.5475 22.79 -1940.75 -1940.89 5336.46 0.000342697 -0.0225011 0.000148627
189 2 1.61225 19.5475 25.069 1639.46 1639.45 -62.5457 -7.28158e-06 -0.000667065 4.50929e-06
190 2 2.41837 20.9437 20.511 -2804.07 -2804.22 -877.707 8.63442e-06 -0.0359562 7.82144e-06
191 2 0.806124 20.9437 22.79 -1940.76 -1940.9 5336.46 -1.09248e-06 -0.0237797 3.17331e-08
192 2 4.03062 20.9437 25.069 1639.47 1639.45 -62.5458 9.0656e-06 -0.000784428 -2.16398e-06
193 2 0 22.34 0 2596.05 2596.03 -99.025 1.22163e-07 -0.00342701 2.49323e-06
194 2 3.2245 22.34 2.279 -1940.76 -1940.9 5336.46 -2.3716e-06 -0.0237763 -1.37074e-06
195 2 1.61225 22.34 4.55799 -2804.09 -2804.23 -877.784 -3.06341e-06 -0.0237463 -1.28091e-05
196 2 2.41837 23.7362 0 2596.05 2596.03 -99.025 -1.03607e-06 -0.00343546 4.14483e-06
197 2 0.806124 23.7362 2.279 -1940.76 -1940.9 5336.46 -7.11349e-07 -0.0237779 -7.28869e-07
198 2 4.03062 23.7362 4.55799 -2804.09 -2804.23 -877.784 -8.10704e-06 -0.0237651 -1.65539e-05
199 2 0 22.34 6.83699 -2812.33 -2812.48 -1020.96 -6.91097e-07 -0.0353393 -1.62285e-05
200 2 3.2245 22.34 9.11598 -2812.36 -2812.5 -1021.14 1.13798e-05 -0.0238628 -2.06765e-06
201 2 1.61225 22.34 11.395 -2812.36 -2812.5 -1021.13 -4.45972e-06 -0.0236359 5.52949e-06
202 2 2.41837 23.7362 6.83699 -2812.33 -2812.48 -1020.96 5.9092e-06 -0.0354074 -1.91725e-05
203 2 0.806124 23.7362 9.11598 -2812.36 -2812.5 -1021.14 5.76963e-06 -0.0238168 7.75949e-07
204 2 4.03062 23.7362 11.395 -2812.36 -2812.5 -1021.13 -4.95421e-05 -0.0234431 -6.18335e-05
205 2 0 22.34 13.674 -2812.33 -2812.49 -1021.06 1.82614e-05 -0.0354563 -1.44451e-05
206 2 3.2245 22.34 15.953 -2812.36 -2812.5 -1021.14 1.01589e-05 -0.0239108 9.91999e-06
207 2 1.61225 22.34 18.232 -2812.36 -2812.5 -1021.04 2.60746e-05 -0.0240455 8.15148e-06
208 2 2.41837 23.7362 13.674 -2812.34 -2812.49 -1021.06 -6.5844e-05 -0.0350285 -2.9023e-05
209 2 0.806124 23.7362 15.953 -2812.36 -2812.5 -1021.14 -2.12636e-05 -0.0237354 -4.66158e-05
210 2 4.03062 23.7362 18.232 -2812.36 -2812.49 -1021.04 0.000518399 -0.0246259 0.000270651
211 2 0 22.34 20.511 -2804.07 -2804.22 -877.712 1.64454e-06 -0.035351 -9.48776e-07
212 2 3.2245 22.34 22.79 -1940.75 -1940.89 5336.46 -0.000110084 -0.022533 -8.72336e-05
213 2 1.61225 22.34 25.069 1639.46 1639.45 -62.5457 8.3289e-06 -0.000665984 -2.27305e-06
214 2 2.41837 23.7362 20.511 -2804.07 -2804.22 -877.708 0.000360308 -0.0359459 8.65994e-05
215 2 0.806124 23.7362 22.79 -1940.76 -1940.9 5336.46 -7.44647e-07 -0.0237786 -4.09313e-07
216 2 4.03062 23.7362 25.069 1639.47 1639.45 -62.5458 -9.77476e-05 -0.000762583 -5.19356e-06
217 2 0 25.1325 0 2596.05 2596.03 -99.025 1.1027e-07 -0.00342698 4.57108e-06
218 2 3.2245 25.1325 2.279 -1940.76 -1940.9 5336.46 -5.26046e-06 -0.0237802 -4.80519e-06
219 2 1.61225 25.1325 4.55799 -2804.09 -2804.23 -877.784 -8.29292e-06 -0.0237443 -3.23616e-05
220 2 2.41837 26.5287 0 2596.05 2596.03 -99.025 -1.1789e-06 -0.00343579 3.50145e-06
221 2 0.806124 26.5287 2.279 -1940.76 -1940.9 5336.46 -7.84779e-07 -0.0237793 -2.64667e-06
222 2 4.03062 26.5287 4.55799 -2804.09 -2804.23 -877.784 -9.50879e-06 -0.0237487 -2.69693e-05
223 2 0 25.1325 6.83699 -2812.33 -2812.48 -1020.96 -9.62398e-07 -0.0353456 -4.336e-05
224 2 3.2245 25.1325 9.11598 -2812.36 -2812.5 -1021.14 3.55287e-05 -0.0238798 3.80421e-06
225 2 1.61225 25.1325 11.395 -2812.36 -2812.5 -1021.14 -2.28313e-06 -0.0237125 2.1678e-05
226 2 2.41837 26.5287 6.83699 -2812.33 -2812.48 -1020.96 8.08423e-06 -0.0353667 -2.67428e-05
227 2 0.806124 26.5287 9.11598 -2812.36 -2812.5 -1021.14 1.13562e-05 -0.0238119 9.96023e-07
228 2 4.03062 26.5287 11.395 -2812.36 -2812.5 -1021.13 -7.05657e-05 -0.0235088 -9.93247e-05
229 2 0 25.1325 13.674 -2812.34 -2812.49 -1021.06 2.83703e-05 -0.0354268 -1.00774e-05
230 2 3.2245 25.1325 15.953 -2812.36 -2812.5 -1021.14 1.68306e-05 -0.0238462 2.06385e-05
231 2 1.61225 25.1325 18.232 -2812.36 -2812.5 -1021.04 6.88774e-05 -0.0239986 2.10236e-05
232 2 2.41837 26.5287 13.674 -2812.34 -2812.49 -1021.06 -0.000122501 -0.0350258 -5.10387e-05
233 2 0.806124 26.5287 15.953 -2812.36 -2812.5 -1021.13 -6.45767e-05 -0.0236673 -7.86192e-05
234 2 4.03062 26.5287 18.232 -2812.36 -2812.49 -1021.04 0.000616453 -0.0246045 0.000371783
235 2 0 25.1325 20.511 -2804.07 -2804.22 -877.711 -4.63608e-06 -0.0353402 3.58525e-06
236 2 3.2245 25.1325 22.79 -1940.75 -1940.89 5336.46 -0.000152347 -0.0230195 -0.00019165
237 2 1.61225 25.1325 25.069 1639.46 1639.45 -62.5457 3.17772e-05 -0.000693573 -5.12181e-06
238 2 2.41837 26.5287 20.511 -2804.07 -2804.22 -877.709 0.000404292 -0.0358011 0.0001178
239 2 0.806124 26.5287 22.79 -1940.76 -1940.9 5336.46 -8.93872e-06 -0.0237743 -3.42609e-06
240 2 4.03062 26.5287 25.069 1639.47 1639.45 -62.5457 -0.00015187 -0.00069559 -2.69484e-05
241 2 0 27.925 0 2596.05 2596.03 -99.025 -7.83902e-08 -0.00342722 7.73236e-07
242 2 3.2245 27.925 2.279 -1940.76 -1940.9 5336.46 -1.68671e-06 -0.0237852 -5.94778e-06
243 2 1.61225 27.925 4.55799 -2804.09 -2804.23 -877.784 -6.99189e-06 -0.0237462 -2.97721e-05
244 2 2.41837 29.3212 0 2596.05 2596.03 -99.025 -9.84451e-08 -0.00343424 -9.22243e-07
245 2 0.806124 29.3212 2.279 -1940.76 -1940.9 5336.46 4.63495e-07 -0.0237803 -3.72632e-06
246 2 4.03062 29.3212 4.55799 -2804.09 -2804.23 -877.784 -3.21799e-06 -0.0237375 -2.60008e-05
247 2 0 27.925 6.83699 -2812.33 -2812.48 -1020.96 5.32979e-07 -0.0353525 -4.74204e-05
248 2 3.2245 27.925 9.11598 -2812.36 -2812.5 -1021.14 5.20291e-05 -0.0238756 2.45401e-05
249 2 1.61225 27.925 11.395 -2812.36 -2812.5 -1021.14 2.58272e-05 -0.0238071 4.19976e-05
250 2 2.41837 29.3212 6.83699 -2812.33 -2812.48 -1020.96 6.49058e-07 -0.0353215 -2.13172e-05
251 2 0.806124 29.3212 9.11598 -2812.36 -2812.5 -1021.14 1.15852e-05 -0.0237998 -5.22587e-06
252 2 4.03062 29.3212 11.395 -2812.36 -2812.5 -1021.13 -2.24763e-05 -0.0236856 -5.83842e-05
253 2 0 27.925 13.674 -2812.34 -2812.49 -1021.06 1.48549e-05 -0.0353723 4.53296e-05
254 2 3.2245 27.925 15.953 -2812.36 -2812.5 -1021.14 -1.0482e-05 -0.0237852 1.53066e-05
255 2 1.61225 27.925 18.232 -2812.36 -2812.5 -1021.04 9.34681e-06 -0.02386 -8.33469e-07
256 2 2.41837 29.3212 13.674 -2812.34 -2812.49 -1021.06 -9.62138e-05 -0.0351575 -4.10682e-05
257 2 0.806124 29.3212 15.953 -2812.36 -2812.5 -1021.13 -9.54219e-05 -0.0236395 -4.02921e-05
258 2 4.03062 29.3212 18.232 -2812.36 -2812.5 -1021.04 0.000248224 -0.0240692 0.000178075
259 2 0 27.925 20.511 -2804.07 -2804.22 -877.71 -9.26617e-06 -0.0353338 1.14775e-06
260 2 3.2245 27.925 22.79 -1940.76 -1940.89 5336.46 0.000268979 -0.0236628 -5.48265e-05
261 2 1.61225 27.925 25.069 1639.46 1639.45 -62.5457 5.13135e-05 -0.000731759 -1.82205e-06
262 2 2.41837 29.3212 20.511 -2804.07 -2804.22 -877.71 0.000175563 -0.035535 7.69087e-05
263 2 0.806124 29.3212 22.79 -1940.76 -1940.9 5336.46 2.011e-05 -0.0237925 4.91223e-06
264 2 4.03062 29.3212 25.069 1639.46 1639.45 -62.5456 -3.06199e-05 -0.000682305 -3.84835e-05
265 2 0 30.7174 0 2596.05 2596.03 -99.025 -1.92457e-07 -0.00342775 -4.39341e-06
266 2 3.2245 30.7174 2.279 -1940.76 -1940.9 5336.46 5.2352e-06 -0.0237868 -3.12378e-06
267 2 1.61225 30.7174 4.55799 -2804.09 -2804.23 -877.784 -3.90545e-08 -0.0237574 -8.26608e-06
268 2 2.41837 32.1137 0 2596.05 2596.03 -99.025 6.43396e-07 -0.00343054 -3.76631e-06
269 2 0.806124 32.1137 2.279 -1940.76 -1940.9 5336.46 1.68307e-06 -0.0237799 -3.92258e-06
270 2 4.03062 32.1137 4.55799 -2804.09 -2804.23 -877.784 5.9151e-06 -0.023746 -1.49094e-05
271 2 0 30.7174 6.83699 -2812.33 -2812.48 -1020.96 2.29562e-06 -0.0353539 -2.36556e-05
272 2 3.2245 30.7174 9.11598 -2812.36 -2812.5 -1021.14 3.69293e-05 -0.0238324 2.88762e-05
273 2 1.61225 30.7174 11.395 -2812.36 -2812.5 -1021.14 4.44091e-05 -0.0238461 3.3846e-05
274 2 2.41837 32.1137 6.83699 -2812.33 -2812.48 -1020.96 -9.87865e-06 -0.0353039 -8.70641e-06
275 2 0.806124 32.1137 9.11598 -2812.36 -2812.5 -1021.14 3.5676e-06 -0.0237816 -1.43372e-05
276 2 4.03062 32.1137 11.395 -2812.36 -2812.5 -1021.14 3.85633e-05 -0.0238299 1.9786e-05
277 2 0 30.7174 13.674 -2812.34 -2812.49 -1021.06 -6.43389e-06 -0.0353367 6.79431e-05
278 2 3.2245 30.7174 15.953 -2812.36 -2812.5 -1021.14 -0.000106902 -0.0236649 -4.37906e-05
279 2 1.61225 30.7174 18.232 -2812.36 -2812.5 -1021.04 -0.000151517 -0.0236672 -3.79024e-05
280 2 2.41837 32.1137 13.674 -2812.34 -2812.49 -1021.06 1.31777e-05 -0.0353499 -3.32078e-06
281 2 0.806124 32.1137 15.953 -2812.36 -2812.5 -1021.14 -4.64681e-05 -0.0237143 2.86265e-05
282 2 4.03062 32.1137 18.232 -2812.36 -2812.5 -1021.04 3.01357e-05 -0.0238275 4.63432e-05
283 2 0 30.7174 20.511 -2804.07 -2804.22 -877.709 2.98178e-05 -0.0353604 -4.83501e-05
284 2 3.2245 30.7174 22.79 -1940.76 -1940.9 5336.46 0.000179668 -0.0238357 3.23265e-05
285 2 1.61225 30.7174 25.069 1639.46 1639.45 -62.5457 3.18061e-05 -0.000756144 1.97231e-06
286 2 2.41837 32.1137 20.511 -2804.07 -2804.22 -877.71 -3.72218e-05 -0.0353648 2.78687e-05
287 2 0.806124 32.1137 22.79 -1940.76 -1940.9 5336.46 -2.40329e-06 -0.0237962 -5.58401e-06
288 2 4.03062 32.1137 25.069 1639.46 1639.45 -62.5457 5.23293e-05 -0.000731673 -1.13788e-05
289 2 0 33.5099 0 2596.05 2596.03 -99.025 2.51401e-08 -0.00342822 -5.12689e-06
290 2 3.2245 33.5099 2.279 -1940.76 -1940.9 5336.46 7.23555e-06 -0.023783 -7.77182e-07
291 2 1.61225 33.5099 4.55799 -2804.09 -2804.23 -877.784 6.35361e-06 -0.0237718 6.61351e-06
292 2 2.41837 34.9062 0 2596.05 2596.03 -99.025 -4.6803e-07 -0.00342688 -2.39358e-06
293 2 0.806124 34.9062 2.279 -1940.76 -1940.9 5336.46 1.37506e-06 -0.0237782 -5.73822e-06
294 2 4.03062 34.9062 4.55799 -2804.09 -2804.23 -877.784 1.05559e-05 -0.0237654 -4.01269e-06
295 2 0 33.5099 6.83699 -2812.33 -2812.48 -1020.96 1.37876e-06 -0.0353493 7.90685e-06
296 2 3.2245 33.5099 9.11598 -2812.36 -2812.5 -1021.14 1.80747e-06 -0.0237831 1.05351e-05
297 2 1.61225 33.5099 11.395 -2812.36 -2812.5 -1021.14 2.93992e-05 -0.0238238 2.65165e-07
298 2 2.41837 34.9062 6.83699 -2812.33 -2812.48 -1020.96 -8.48357e-06 -0.035323 2.81504e-06
299 2 0.806124 34.9062 9.11598 -2812.36 -2812.5 -1021.14 -6.30057e-06 -0.0237685 -1.05811e-05
300 2 4.03062 34.9062 11.395 -2812.36 -2812.5 -1021.14 3.19127e-05 -0.0238299 3.24701e-05
301 2 0 33.5099 13.674 -2812.34 -2812.49 -1021.06 -8.85067e-06 -0.0353366 2.60395e-05
302 2 3.2245 33.5099 15.953 -2812.36 -2812.5 -1021.14 -8.43435e-05 -0.0236824 -7.25121e-05
303 2 1.61225 33.5099 18.232 -2812.36 -2812.49 -1021.04 -0.000134033 -0.0236627 -1.15706e-05
304 2 2.41837 34.9062 13.674 -2812.34 -2812.49 -1021.06 5.90503e-05 -0.035408 6.65261e-06
305 2 0.806124 34.9062 15.953 -2812.36 -2812.5 -1021.14 1.31282e-05 -0.0237797 2.85351e-05
306 2 4.03062 34.9062 18.232 -2812.36 -2812.5 -1021.04 -0.000103721 -0.0237078 -5.71594e-05
307 2 0 33.5099 20.511 -2804.07 -2804.22 -877.708 2.12077e-05 -0.0353604 -2.30816e-05
308 2 3.2245 33.5099 22.79 -1940.76 -1940.9 5336.46 1.79668e-05 -0.0237968 1.77286e-05
309 2 1.61225 33.5099 25.069 1639.46 1639.45 -62.5457 -7.53083e-06 -0.000756904 9.22737e-07
310 2 2.41837 34.9062 20.511 -2804.07 -2804.22 -877.709 -0.000118677 -0.0352891 -6.36114e-06
311 2 0.806124 34.9062 22.79 -1940.76 -1940.9 5336.46 -3.91252e-05 -0.023773 -5.81263e-06
312 2 4.03062 34.9062 25.069 1639.46 1639.45 -62.5457 1.61263e-05 -0.000752125 5.5956e-06
313 2 0 36.3024 0 2596.05 2596.03 -99.025 3.6765e-07 -0.00342834 -1.30968e-06
314 2 3.2245 36.3024 2.279 -1940.76 -1940.9 5336.46 2.33654e-06 -0.023776 -2.62712e-06
315 2 1.61225 36.3024 4.55799 -2804.09 -2804.23 -877.784 6.57036e-06 -0.0237782 4.37141e-07
316 2 2.41837 37.6987 0 2596.05 2596.03 -99.025 -2.31424e-06 -0.0034255 8.95363e-07
317 2 0.806124 37.6987 2.279 -1940.76 -1940.9 5336.46 -1.8328e-07 -0.0237762 -7.99919e-06
318 2 4.03062 37.6987 4.55799 -2804.09 -2804.23 -877.784 6.32087e-06 -0.0237731 -2.47513e-06
319 2 0 36.3024 6.83699 -2812.33 -2812.48 -1020.96 -8.76175e-07 -0.0353453 1.78691e-05
320 2 3.2245 36.3024 9.11598 -2812.36 -2812.5 -1021.14 -1.82467e-05 -0.0237622 -7.09843e-06
321 2 1.61225 36.3024 11.395 -2812.36 -2812.5 -1021.14 -3.53389e-06 -0.0237803 -2.47506e-05
322 2 2.41837 37.6987 6.83699 -2812.33 -2812.48 -1020.96 2.96538e-06 -0.0353485 5.55712e-06
323 2 0.806124 37.6987 9.11598 -2812.36 -2812.5 -1021.14 -5.31627e-06 -0.0237702 4.17415e-06
324 2 4.03062 37.6987 11.395 -2812.36 -2812.5 -1021.14 -2.30092e-06 -0.0237832 -4.54104e-07
325 2 0 36.3024 13.674 -2812.34 -2812.49 -1021.06 -3.20002e-07 -0.0353467 -2.61494e-05
326 2 3.2245 36.3024 15.953 -2812.36 -2812.5 -1021.14 3.92495e-05 -0.0237905 -7.97918e-06
327 2 1.61225 36.3024 18.232 -2812.36 -2812.5 -1021.04 1.50404e-05 -0.0237686 2.53257e-05
328 2 2.41837 37.6987 13.674 -2812.34 -2812.49 -1021.06 1.8932e-05 -0.0353649 -1.20896e-05
329 2 0.806124 37.6987 15.953 -2812.36 -2812.5 -1021.14 1.98183e-05 -0.0237878 -5.40468e-06
330 2 4.03062 37.6987 18.232 -2812.36 -2812.5 -1021.04 -1.09982e-05 -0.0237598 -2.24714e-05
331 2 0 36.3024 20.511 -2804.07 -2804.22 -877.709 -8.47444e-06 -0.0353449 3.44829e-05
332 2 3.2245 36.3024 22.79 -1940.76 -1940.9 5336.46 -4.00438e-05 -0.0237733 3.68395e-06
333 2 1.61225 36.3024 25.069 1639.46 1639.45 -62.5457 -1.35641e-05 -0.000746999 -1.5729e-06
334 2 2.41837 37.6987 20.511 -2804.07 -2804.22 -877.709 1.21577e-06 -0.0353377 9.6158e-06