ITEM: TIMESTEP
0
ITEM: NUMBER OF ATOMS
3074
ITEM: BOX BOUNDS pp pp pp
0.0000000000000000e+00 3.8693948398131120e+01
0.0000000000000000e+00 4.4679925159782847e+01
0.0000000000000000e+00 6.0000000000000000e+01
ITEM: ATOMS id type x y z c_peratom[1] c_peratom[2] c_peratom[3] c_peratom[4] c_peratom[5] c_peratom[6]
1 2 0 0 0 -205991 -205989 7857.41 1.80344e-05 0.272027 0.000179903
2 2 3.2245 0 2.279 29869.7 29871.8 -82132 -6.6788e-05 0.36576 -7.60721e-05
3 2 1.61225 0 4.55799 43157 43159.1 13509.7 -1.5283e-05 0.365783 -0.000200524
4 2 2.41837 1.39625 0 -205991 -205989 7857.41 -0.000296094 0.271843 0.000173148
5 2 0.806124 1.39625 2.279 29869.7 29871.8 -82132 -1.9421e-05 0.365921 -0.00016131
6 2 4.03062 1.39625 4.55799 43157 43159.1 13509.7 2.49402e-05 0.365734 -0.000117668
7 2 0 0 6.83699 43283.9 43286.2 15713.4 -1.03787e-05 0.544011 -4.88405e-05
8 2 3.2245 0 9.11598 43284.2 43286.4 15716 9.9199e-05 0.366131 5.19699e-05
9 2 1.61225 0 11.395 43284.2 43286.4 15716 -2.84408e-05 0.365948 4.70929e-06
10 2 2.41837 1.39625 6.83699 43283.9 43286.2 15713.4 0.000154493 0.544113 3.33277e-05
11 2 0.806124 1.39625 9.11598 43284.2 43286.4 15716 1.68e-05 0.365926 0.000197497
12 2 4.03062 1.39625 11.395 43284.2 43286.4 15716 -0.000203947 0.365858 -0.000263523
13 2 0 0 13.674 43283.9 43286.2 15714.9 2.00298e-05 0.544009 -0.000160349
14 2 3.2245 0 15.953 43284.2 43286.4 15716 -0.000122903 0.365808 -8.8783e-05
15 2 1.61225 0 18.232 43284.2 43286.3 15714.5 -5.08377e-06 0.365947 -4.80267e-05
16 2 2.41837 1.39625 13.674 43283.9 43286.2 15714.9 -0.000250069 0.543865 -0.000317319
17 2 0.806124 1.39625 15.953 43284.2 43286.4 15716 1.63196e-05 0.365939 -0.000329638
18 2 4.03062 1.39625 18.232 43284.2 43286.3 15714.5 0.000503122 0.366185 0.000320753
19 2 0 0 20.511 43156.6 43158.9 13508.6 1.11361e-05 0.544012 6.39692e-05
20 2 3.2245 0 22.79 29869.7 29871.8 -82132 0.000225097 0.36605 7.23575e-05
21 2 1.61225 0 25.069 -205991 -205989 7858.56 0.000420759 0.0938963 0.000134731
22 2 2.41837 1.39625 20.511 43156.6 43158.9 13508.6 0.000516081 0.544249 0.000266347
23 2 0.806124 1.39625 22.79 29869.7 29871.8 -82132 0.000105655 0.365986 0.000134107
24 2 4.03062 1.39625 25.069 -205991 -205989 7858.56 0.000116519 0.0936683 -0.000218113
25 2 0 2.7925 0 -205991 -205989 7857.41 8.23381e-05 0.272036 0.000159133
26 2 3.2245 2.7925 2.279 29869.7 29871.8 -82132 -6.76536e-05 0.36584 -0.00012853
27 2 1.61225 2.7925 4.55799 43157 43159.1 13509.7 4.28549e-05 0.365914 -0.000285199
28 2 2.41837 4.18874 0 -205991 -205989 7857.41 -0.000261696 0.271808 4.12167e-05
29 2 0.806124 4.18874 2.279 29869.7 29871.8 -82132 2.93619e-07 0.365942 -0.0001776
30 2 4.03062 4.18874 4.55799 43157 43159.1 13509.7 0.000142508 0.365926 -9.1342e-05
31 2 0 2.7925 6.83699 43283.9 43286.2 15713.4 -4.88857e-05 0.543983 0.000107411
32 2 3.2245 2.7925 9.11598 43284.2 43286.4 15716 -7.28412e-05 0.36589 -1.45749e-05
33 2 1.61225 2.7925 11.395 43284.2 43286.4 15716 -0.000191267 0.365765 -0.000199933
34 2 2.41837 4.18874 6.83699 43283.9 43286.2 15713.4 6.67083e-05 0.54403 9.90946e-05
35 2 0.806124 4.18874 9.11598 43284.2 43286.4 15716 -8.47718e-05 0.365838 0.000113077
36 2 4.03062 4.18874 11.395 43284.2 43286.4 15716 -3.45903e-05 0.366041 2.88344e-05
37 2 0 2.7925 13.674 43283.9 43286.2 15714.9 8.80652e-05 0.544066 -0.00056124
38 2 3.2245 2.7925 15.953 43284.2 43286.4 15716 0.000469933 0.366213 8.20525e-05
39 2 1.61225 2.7925 18.232 43284.2 43286.3 15714.5 0.000575756 0.366216 0.000203763
40 2 2.41837 4.18874 13.674 43283.9 43286.2 15714.9 0.000333004 0.544325 -0.000203989
41 2 0.806124 4.18874 15.953 43284.2 43286.4 15716 0.000304098 0.366104 -7.74219e-05
42 2 4.03062 4.18874 18.232 43284.2 43286.3 15714.5 -0.000138951 0.365684 -0.000366158
43 2 0 2.7925 20.511 43156.6 43158.9 13508.6 -0.000105864 0.543951 0.000439105
44 2 3.2245 2.7925 22.79 29869.7 29871.8 -82132 -2.45394e-05 0.36591 4.17094e-06
45 2 1.61225 2.7925 25.069 -205991 -205989 7858.56 0.00012822 0.0935917 -1.96451e-05
46 2 2.41837 4.18874 20.511 43156.6 43158.9 13508.6 -1.58062e-05 0.543844 0.00017901
47 2 0.806124 4.18874 22.79 29869.7 29871.8 -82132 -0.000124492 0.365902 0.000135672
48 2 4.03062 4.18874 25.069 -205991 -205989 7858.56 -0.00132895 0.0939858 0.000318911
49 2 0 5.58499 0 -205991 -205989 7857.41 6.23608e-05 0.272039 -0.000151312
50 2 3.2245 5.58499 2.279 29869.7 29871.8 -82132 3.76507e-05 0.365971 -6.51941e-05
51 2 1.61225 5.58499 4.55799 43157 43159.1 13509.7 0.000109955 0.365983 -3.20157e-05
52 2 2.41837 6.98124 0 -205991 -205989 7857.41 -3.65379e-05 0.271958 -0.000222375
53 2 0.806124 6.98124 2.279 29869.7 29871.8 -82132 2.10311e-05 0.365968 -9.80195e-05
54 2 4.03062 6.98124 4.55799 43157 43159.1 13509.7 0.000186988 0.365826 -8.05912e-05
55 2 0 5.58499 6.83699 43283.9 43286.2 15713.4 -2.434e-05 0.543994 0.000289127
56 2 3.2245 5.58499 9.11598 43284.2 43286.4 15716 -0.000284454 0.365685 -7.54509e-05
57 2 1.61225 5.58499 11.395 43284.2 43286.4 15716 -2.10702e-05 0.366025 -0.000380854
58 2 2.41837 6.98124 6.83699 43283.9 43286.2 15713.4 -0.000133884 0.543617 5.9342e-05
59 2 0.806124 6.98124 9.11598 43284.2 43286.4 15716 -7.09478e-05 0.365843 -0.000166353
60 2 4.03062 6.98124 11.395 43284.2 43286.4 15716 0.00051514 0.366794 0.000511791
61 2 0 5.58499 13.674 43283.9 43286.2 15714.9 -4.07174e-05 0.543976 -0.000372873
62 2 3.2245 5.58499 15.953 43284.2 43286.4 15716 0.000645661 0.366178 -0.000145528
63 2 1.61225 5.58499 18.232 43284.2 43286.3 15714.5 0.000142633 0.365763 0.000437612
64 2 2.41837 6.98124 13.674 43283.9 43286.2 15714.9 0.000921856 0.544979 9.01279e-05
65 2 0.806124 6.98124 15.953 43284.2 43286.4 15716 0.000106613 0.365921 0.000496522
66 2 4.03062 6.98124 18.232 43284.2 43286.3 15714.5 -0.00157732 0.364849 -0.000838851
67 2 0 5.58499 20.511 43156.6 43158.9 13508.6 -0.000139527 0.544002 0.000546975
68 2 3.2245 5.58499 22.79 29869.7 29871.8 -82132 -0.000643764 0.365877 6.65221e-05
69 2 1.61225 5.58499 25.069 -205991 -205989 7858.56 -0.00178969 0.0938917 -0.000250019
70 2 2.41837 6.98124 20.511 43156.6 43158.9 13508.6 -0.00192454 0.543073 -5.89658e-05
71 2 0.806124 6.98124 22.79 29869.7 29871.8 -82132 -0.000538379 0.365912 -0.000106861
72 2 4.03062 6.98124 25.069 -205991 -205989 7858.57 0.00200151 0.094523 0.000685235
73 2 0 8.37749 0 -205991 -205989 7857.41 -5.93712e-06 0.272011 -0.000431999
74 2 3.2245 8.37749 2.279 29869.7 29871.8 -82132 0.000120235 0.366087 -1.05527e-05
75 2 1.61225 8.37749 4.55799 43157 43159.1 13509.7 9.18132e-05 0.365872 0.000121749
76 2 2.41837 9.77373 0 -205991 -205989 7857.41 9.07542e-05 0.272265 -0.000316186
77 2 0.806124 9.77373 2.279 29869.7 29871.8 -82132 2.03204e-05 0.365987 -4.11277e-05
78 2 4.03062 9.77373 4.55799 43157 43159.1 13509.7 9.70831e-05 0.365509 -0.000212635
79 2 0 8.37749 6.83699 43283.9 43286.2 15713.4 4.05967e-05 0.544097 0.000102263
80 2 3.2245 8.37749 9.11598 43284.2 43286.4 15716 4.27213e-05 0.366033 0.000175969
81 2 1.61225 8.37749 11.395 43284.2 43286.4 15716 0.000460869 0.366671 1.16671e-05
82 2 2.41837 9.77373 6.83699 43283.9 43286.2 15713.4 -0.000143395 0.543348 -0.000126668
83 2 0.806124 9.77373 9.11598 43284.2 43286.4 15716 7.43023e-05 0.366038 -0.00021856
84 2 4.03062 9.77373 11.395 43284.2 43286.4 15716 0.000607015 0.366807 0.000279597
85 2 0 8.37749 13.674 43283.9 43286.2 15714.9 -0.000228959 0.543756 0.000472635
86 2 3.2245 8.37749 15.953 43284.2 43286.4 15716 -0.0013288 0.364452 -0.00108145
87 2 1.61225 8.37749 18.232 43284.2 43286.3 15714.5 -0.00210968 0.364166 -0.000152257
88 2 2.41837 9.77373 13.674 43283.9 43286.2 15714.9 0.000129935 0.544006 -1.26232e-05
89 2 0.806124 9.77373 15.953 43284.2 43286.4 15716 -0.00074321 0.364975 0.000431315
90 2 4.03062 9.77373 18.232 43284.2 43286.4 15714.6 0.000444591 0.366677 0.000758982
91 2 0 8.37749 20.511 43156.6 43158.9 13508.6 0.000624103 0.544373 -0.000441538
92 2 3.2245 8.37749 22.79 29869.7 29871.8 -82132 0.000284832 0.366261 0.000281878
93 2 1.61225 8.37749 25.069 -205991 -205989 7858.56 -0.00069403 0.0951203 7.85387e-05
94 2 2.41837 9.77373 20.511 43156.6 43159 13508.6 -0.000505977 0.544333 0.000442649
95 2 0.806124 9.77373 22.79 29869.7 29871.8 -82132 9.27245e-05 0.366236 -8.01687e-05
96 2 4.03062 9.77373 25.069 -205991 -205989 7858.56 0.00636921 0.0920063 -0.00150375
97 2 0 11.17 0 -205991 -205989 7857.41 -4.25361e-05 0.27195 -0.000326116
98 2 3.2245 11.17 2.279 29869.7 29871.8 -82132 8.41099e-05 0.366136 -3.46304e-05
99 2 1.61225 11.17 4.55799 43157 43159.1 13509.7 -9.28469e-06 0.365653 -0.000111074
100 2 2.41837 12.5662 0 -205991 -205989 7857.41 2.24218e-05 0.272539 -4.55603e-05
101 2 0.806124 12.5662 2.279 29869.7 29871.8 -82132 4.6845e-07 0.365989 -3.44398e-05
102 2 4.03062 12.5662 4.55799 43157 43159.1 13509.7 -5.85182e-05 0.365368 -0.000388695
103 2 0 11.17 6.83699 43283.9 43286.2 15713.4 5.4804e-05 0.544189 -0.000390084
104 2 3.2245 11.17 9.11598 43284.2 43286.4 15716 0.000588343 0.366813 0.000426553
105 2 1.61225 11.17 11.395 43284.2 43286.4 15716 0.000620975 0.366923 0.000549059
106 2 2.41837 12.5662 6.83699 43283.9 43286.2 15713.4 2.42196e-05 0.543649 -0.000356942
107 2 0.806124 12.5662 9.11598 43284.3 43286.4 15716 0.000158502 0.366259 -7.0688e-05
108 2 4.03062 12.5662 11.395 43284.2 43286.4 15716 -0.000277998 0.364684 -0.000824532
109 2 0 11.17 13.674 43283.9 43286.2 15714.9 -0.000110255 0.543844 0.00104766
110 2 3.2245 11.17 15.953 43284.3 43286.4 15716 -0.00167524 0.364142 -0.000610507
111 2 1.61225 11.17 18.232 43284.2 43286.3 15714.5 -0.00206108 0.364449 -0.000610228
112 2 2.41837 12.5662 13.674 43283.9 43286.2 15714.8 -0.00146566 0.541125 -0.000501668
113 2 0.806124 12.5662 15.953 43284.2 43286.4 15716 -0.00116822 0.364206 -0.000694752
114 2 4.03062 12.5662 18.232 43284.2 43286.3 15714.6 0.00377583 0.370486 0.00276806
115 2 0 11.17 20.511 43156.6 43158.9 13508.6 0.000548514 0.544215 -0.000658743
116 2 3.2245 11.17 22.79 29869.7 29871.8 -82132 0.0027582 0.366875 0.000459906
117 2 1.61225 11.17 25.069 -205991 -205989 7858.57 0.00410117 0.0948563 0.000245237
118 2 2.41837 12.5662 20.511 43156.6 43159 13508.6 0.00284374 0.547052 0.00114523
119 2 0.806124 12.5662 22.79 29869.7 29871.8 -82132 0.000247638 0.366127 7.14675e-05
120 2 4.03062 12.5662 25.069 -205991 -205989 7858.56 -0.00396944 0.0862552 -0.00453504
121 2 0 13.9625 0 -205991 -205989 7857.41 -2.16777e-05 0.271894 0.000139645
122 2 3.2245 13.9625 2.279 29869.7 29871.8 -82132 -3.09573e-05 0.366096 -7.57052e-05
123 2 1.61225 13.9625 4.55799 43157 43159.1 13509.7 -0.000110305 0.36551 -0.000474195
124 2 2.41837 15.3587 0 -205991 -205989 7857.41 -7.93479e-05 0.27262 0.000349308
125 2 0.806124 15.3587 2.279 29869.7 29871.8 -82132 -1.34721e-05 0.365973 -2.23705e-05
126 2 4.03062 15.3587 4.55799 43157 43159.1 13509.7 -0.000170629 0.365535 -0.000430082
127 2 0 13.9625 6.83699 43283.9 43286.2 15713.4 9.55774e-06 0.544137 -0.000750525
128 2 3.2245 13.9625 9.11598 43284.2 43286.4 15716 0.000790436 0.367455 0.000322061
129 2 1.61225 13.9625 11.395 43284.2 43286.4 15716 0.000317045 0.366277 0.000672375
130 2 2.41837 15.3587 6.83699 43283.9 43286.2 15713.4 0.000117075 0.544337 -0.000477451
131 2 0.806124 15.3587 9.11598 43284.3 43286.4 15716 0.00013101 0.366383 3.07672e-07
132 2 4.03062 15.3587 11.395 43284.2 43286.4 15716 -0.000935209 0.362126 -0.00134731
133 2 0 13.9625 13.674 43283.9 43286.2 15714.8 0.000373279 0.544709 0.000564997
134 2 3.2245 13.9625 15.953 43284.3 43286.4 15716 -0.000205156 0.366044 0.000286124
135 2 1.61225 13.9625 18.232 43284.2 43286.3 15714.6 0.000322057 0.367355 -6.73814e-05
136 2 2.41837 15.3587 13.674 43283.9 43286.2 15714.9 -0.00176188 0.539206 -0.00065784
137 2 0.806124 15.3587 15.953 43284.2 43286.4 15716 -0.000642297 0.364806 -0.00117883
138 2 4.03062 15.3587 18.232 43284.2 43286.3 15714.5 0.00839441 0.377783 0.00507377
139 2 0 13.9625 20.511 43156.7 43159 13508.6 -0.000284377 0.543642 0.000100165
140 2 3.2245 13.9625 22.79 29869.7 29871.8 -82132 0.00363524 0.36443 -0.000805961
141 2 1.61225 13.9625 25.069 -205991 -205989 7858.57 0.00572419 0.0918644 -0.00017175
142 2 2.41837 15.3587 20.511 43156.6 43158.9 13508.6 0.00563914 0.550589 0.00157352
143 2 0.806124 15.3587 22.79 29869.7 29871.8 -82132 -8.21119e-05 0.365935 -4.30272e-05
144 2 4.03062 15.3587 25.069 -205991 -205989 7858.56 -0.0166638 0.0879533 -0.00293061
145 2 0 16.755 0 -205991 -205989 7857.41 9.39912e-06 0.271878 0.000444234
146 2 3.2245 16.755 2.279 29869.7 29871.8 -82132 -8.39549e-05 0.366008 -5.80218e-05
147 2 1.61225 16.755 4.55799 43157 43159.1 13509.7 -0.000121966 0.365504 -0.000513125
148 2 2.41837 18.1512 0 -205991 -205989 7857.41 -7.15555e-05 0.272562 0.000375658
149 2 0.806124 18.1512 2.279 29869.7 29871.8 -82132 -7.68947e-06 0.365958 -5.90892e-08
150 2 4.03062 18.1512 4.55799 43157 43159.1 13509.7 -0.000141871 0.365773 -0.000267348
151 2 0 16.755 6.83699 43283.9 43286.2 15713.4 -1.9415e-05 0.543976 -0.000678527
152 2 3.2245 16.755 9.11598 43284.2 43286.4 15716 0.000518484 0.367527 7.44349e-06
153 2 1.61225 16.755 11.395 43284.2 43286.4 15716 -5.2062e-05 0.364949 0.000344368
154 2 2.41837 18.1512 6.83699 43283.9 43286.2 15713.4 7.09535e-05 0.54492 -0.00034206
155 2 0.806124 18.1512 9.11598 43284.3 43286.4 15716 5.15375e-05 0.36642 -1.65003e-05
156 2 4.03062 18.1512 11.395 43284.2 43286.4 15716 -0.000641664 0.361059 -0.000816067
157 2 0 16.755 13.674 43283.9 43286.2 15714.8 0.000592226 0.545807 -0.000238928
158 2 3.2245 16.755 15.953 43284.3 43286.4 15716 0.000326469 0.367419 0.000419062
159 2 1.61225 16.755 18.232 43284.2 43286.4 15714.6 0.000992373 0.369234 0.000261807
160 2 2.41837 18.1512 13.674 43283.9 43286.2 15714.9 -0.00091651 0.53912 -0.000392233
161 2 0.806124 18.1512 15.953 43284.2 43286.4 15716 -0.000179841 0.365603 -0.000648306
162 2 4.03062 18.1512 18.232 43284.2 43286.3 15714.5 0.00669801 0.378465 0.00347457
163 2 0 16.755 20.511 43156.7 43159 13508.6 -0.000200853 0.543715 0.000122963
164 2 3.2245 16.755 22.79 29869.6 29871.8 -82132 -0.0016369 0.356245 -0.002332
165 2 1.61225 16.755 25.069 -205991 -205989 7858.56 0.00304777 0.0876936 -0.000498299
166 2 2.41837 18.1512 20.511 43156.6 43158.9 13508.6 0.00444319 0.552175 0.00108648
167 2 0.806124 18.1512 22.79 29869.7 29871.8 -82132 1.12974e-05 0.365978 1.08524e-05
168 2 4.03062 18.1512 25.069 -205991 -205989 7858.57 -0.00994297 0.0951836 -0.000606797
169 2 0 19.5475 0 -205991 -205989 7857.42 1.28988e-05 0.271891 0.0002057
170 2 3.2245 19.5475 2.279 29869.7 29871.8 -82132 -3.17414e-05 0.365947 -1.14035e-05
171 2 1.61225 19.5475 4.55799 43157 43159.1 13509.7 -3.52928e-05 0.365535 -0.000180853
172 2 2.41837 20.9437 0 -205991 -205989 7857.42 2.35643e-05 0.27253 -4.08595e-05
173 2 0.806124 20.9437 2.279 29869.7 29871.8 -82132 6.66925e-06 0.365957 4.57423e-06
174 2 4.03062 20.9437 4.55799 43157 43159.1 13509.7 9.02193e-06 0.365846 1.98467e-05
175 2 0 19.5475 6.83699 43283.9 43286.2 15713.4 -1.13049e-05 0.543842 -0.000228575
176 2 3.2245 19.5475 9.11598 43284.2 43286.4 15716 0.000158504 0.367339 -3.54854e-05
177 2 1.61225 19.5475 11.395 43284.2 43286.4 15716 -3.69114e-05 0.363997 9.52027e-05
178 2 2.41837 20.9437 6.83699 43283.9 43286.2 15713.4 -2.03765e-05 0.54509 8.48332e-06
179 2 0.806124 20.9437 9.11598 43284.3 43286.4 15716 -3.77137e-05 0.366425 -4.78484e-06
180 2 4.03062 20.9437 11.395 43284.2 43286.4 15716 0.000118631 0.360742 0.000138355
181 2 0 19.5475 13.674 43283.9 43286.2 15714.8 0.0003356 0.546324 -0.000201049
182 2 3.2245 19.5475 15.953 43284.3 43286.4 15716 0.000129315 0.368516 0.000135486
183 2 1.61225 19.5475 18.232 43284.2 43286.4 15714.6 0.00026365 0.369717 6.92763e-05
184 2 2.41837 20.9437 13.674 43283.9 43286.2 15714.9 0.000108742 0.539153 3.76714e-05
185 2 0.806124 20.9437 15.953 43284.2 43286.4 15716 6.24292e-05 0.36565 3.46861e-05
186 2 4.03062 20.9437 18.232 43284.2 43286.3 15714.5 0.000422976 0.377979 0.000324999
187 2 0 19.5475 20.511 43156.7 43159 13508.6 -8.29393e-05 0.543756 3.55137e-05
188 2 3.2245 19.5475 22.79 29869.6 29871.8 -82132 -0.000446698 0.350417 -0.000760087
189 2 1.61225 19.5475 25.069 -205991 -205989 7858.56 0.000698161 0.0849934 -0.000146701
190 2 2.41837 20.9437 20.511 43156.6 43158.9 13508.6 -0.00032694 0.55242 2.36447e-05
191 2 0.806124 20.9437 22.79 29869.7 29871.8 -82132 -3.37727e-05 0.365981 -2.96292e-06
192 2 4.03062 20.9437 25.069 -205991 -205989 7858.57 0.00246497 0.0970667 -0.000320566
193 2 0 22.34 0 -205991 -205989 7857.42 -3.46852e-06 0.271896 -0.00028601
194 2 3.2245 22.34 2.279 29869.7 29871.8 -82132 5.64155e-05 0.365952 3.40135e-05
195 2 1.61225 22.34 4.55799 43157 43159.1 13509.7 7.78949e-05 0.365522 0.000276738
196 2 2.41837 23.7362 0 -205991 -205989 7857.41 0.00010826 0.272584 -0.000412123
197 2 0.806124 23.7362 2.279 29869.7 29871.8 -82132 1.34583e-05 0.36597 1.56368e-05
198 2 4.03062 23.7362 4.55799 43157 43159.1 13509.7 0.000148579 0.365688 0.000312127
199 2 0 22.34 6.83699 43283.9 43286.2 15713.4 7.07743e-06 0.543807 0.000348223
200 2 3.2245 22.34 9.11598 43284.2 43286.4 15716 -0.000175026 0.367464 9.60905e-05
201 2 1.61225 22.34 11.395 43284.2 43286.4 15716 0.000137569 0.364241 -7.27193e-06
202 2 2.41837 23.7362 6.83699 43283.9 43286.2 15713.4 -0.0001134 0.544785 0.000353074
203 2 0.806124 23.7362 9.11598 43284.3 43286.4 15716 -0.000127575 0.366396 1.06166e-06
204 2 4.03062 23.7362 11.395 43284.2 43286.4 15716 0.000927161 0.360662 0.00117148
205 2 0 22.34 13.674 43283.9 43286.2 15714.8 -9.35822e-05 0.546385 0.000246603
206 2 3.2245 22.34 15.953 43284.3 43286.4 15716 -0.000345208 0.367989 -0.000310376
207 2 1.61225 22.34 18.232 43284.2 43286.4 15714.6 -0.000645736 0.36924 -0.000263079
208 2 2.41837 23.7362 13.674 43283.9 43286.2 15714.9 0.00126492 0.538559 0.000585192
209 2 0.806124 23.7362 15.953 43284.2 43286.4 15716 0.000511131 0.365002 0.000772573
210 2 4.03062 23.7362 18.232 43284.2 43286.3 15714.5 -0.00792296 0.38312 -0.00412256
211 2 0 22.34 20.511 43156.7 43159 13508.6 3.32254e-05 0.543701 -6.04925e-05
212 2 3.2245 22.34 22.79 29869.6 29871.8 -82132 0.00478338 0.350504 0.00217386
213 2 1.61225 22.34 25.069 -205991 -205989 7858.56 -0.000946578 0.0854509 0.000561704
214 2 2.41837 23.7362 20.511 43156.6 43158.9 13508.6 -0.00521419 0.552679 -0.00133075
215 2 0.806124 23.7362 22.79 29869.7 29871.8 -82132 5.3906e-05 0.365952 2.3843e-05
216 2 4.03062 23.7362 25.069 -205991 -205989 7858.56 0.0174326 0.0908668 0.000835107
217 2 0 25.1325 0 -205991 -205989 7857.41 -1.44576e-05 0.271883 -0.000418385
218 2 3.2245 25.1325 2.279 29869.7 29871.8 -82132 8.89232e-05 0.366019 7.78251e-05
219 2 1.61225 25.1325 4.55799 43157 43159.1 13509.7 0.000129453 0.365481 0.000582151
220 2 2.41837 26.5287 0 -205991 -205989 7857.41 7.94071e-05 0.272614 -0.000304126
221 2 0.806124 26.5287 2.279 29869.7 29871.8 -82132 1.2964e-06 0.365986 4.13952e-05
222 2 4.03062 26.5287 4.55799 43157 43159.1 13509.7 0.000156211 0.365389 0.000478202
223 2 0 25.1325 6.83699 43283.9 43286.2 15713.4 2.17854e-05 0.54389 0.000757005
224 2 3.2245 25.1325 9.11598 43284.2 43286.4 15716 -0.000638504 0.367755 -0.000103504
225 2 1.61225 25.1325 11.395 43284.2 43286.4 15716 -6.73154e-05 0.365541 -0.000407163
226 2 2.41837 26.5287 6.83699 43283.9 43286.2 15713.4 -0.000127517 0.544102 0.00048622
227 2 0.806124 26.5287 9.11598 43284.3 43286.4 15716 -0.000162569 0.366272 -8.15635e-06
228 2 4.03062 26.5287 11.395 43284.2 43286.4 15716 0.00108179 0.362208 0.00157137
229 2 0 25.1325 13.674 43283.9 43286.2 15714.8 -0.000498806 0.546077 4.15478e-05
230 2 3.2245 25.1325 15.953 43284.3 43286.4 15716 -0.000265549 0.366723 -0.000349823
231 2 1.61225 25.1325 18.232 43284.2 43286.4 15714.6 -0.000854505 0.368182 -0.000298114
232 2 2.41837 26.5287 13.674 43283.9 43286.2 15714.8 0.0021411 0.538873 0.000948574
233 2 0.806124 26.5287 15.953 43284.2 43286.4 15716 0.00116889 0.364279 0.00129515
234 2 4.03062 26.5287 18.232 43284.2 43286.3 15714.5 -0.00834518 0.377432 -0.00508032
235 2 0 25.1325 20.511 43156.7 43159 13508.6 0.000298884 0.543458 -0.000172361
236 2 3.2245 25.1325 22.79 29869.6 29871.8 -82132 0.000334796 0.358553 0.00255293
237 2 1.61225 25.1325 25.069 -205991 -205989 7858.56 -0.00465636 0.0892171 0.000647355
238 2 2.41837 26.5287 20.511 43156.7 43159 13508.6 -0.00480891 0.549302 -0.00156972
239 2 0.806124 26.5287 22.79 29869.7 29871.8 -82131.9 0.000157331 0.365886 8.05308e-05
240 2 4.03062 26.5287 25.069 -205991 -205989 7858.55 0.0178035 0.081746 0.005204
241 2 0 27.925 0 -205991 -205989 7857.41 1.50562e-06 0.271878 -2.65421e-05
242 2 3.2245 27.925 2.279 29869.7 29871.8 -82132 3.98804e-06 0.366097 7.35782e-05
243 2 1.61225 27.925 4.55799 43157 43159.1 13509.7 7.19693e-05 0.36553 0.000456496
244 2 2.41837 29.3212 0 -205991 -205989 7857.41 -5.84026e-05 0.272461 0.000111464
245 2 0.806124 29.3212 2.279 29869.7 29871.8 -82132 -2.02255e-05 0.365988 3.66447e-05
246 2 4.03062 29.3212 4.55799 43157 43159.1 13509.7 3.49539e-05 0.365258 0.000404596
247 2 0 27.925 6.83699 43283.9 43286.2 15713.4 1.08576e-05 0.544058 0.000711453
248 2 3.2245 27.925 9.11598 43284.2 43286.4 15716 -0.000863905 0.367508 -0.000461079
249 2 1.61225 27.925 11.395 43284.2 43286.4 15716 -0.000530412 0.366746 -0.000795056
250 2 2.41837 29.3212 6.83699 43283.9 43286.2 15713.4 3.4438e-05 0.543452 0.000374761
251 2 0.806124 29.3212 9.11598 43284.3 43286.4 15716 -8.37165e-05 0.36606 9.85985e-05
252 2 4.03062 29.3212 11.395 43284.2 43286.4 15716 -4.87093e-05 0.36562 0.000449669
253 2 0 27.925 13.674 43283.9 43286.2 15714.8 -0.000530827 0.545181 -0.000772941
254 2 3.2245 27.925 15.953 43284.3 43286.4 15716 0.000724601 0.36514 3.08766e-05
255 2 1.61225 27.925 18.232 43284.2 43286.3 15714.5 0.000682978 0.365955 0.000402565
256 2 2.41837 29.3212 13.674 43283.9 43286.2 15714.8 0.00119372 0.541858 0.000414352
257 2 0.806124 29.3212 15.953 43284.2 43286.4 15716 0.000974809 0.364731 0.000535232
258 2 4.03062 29.3212 18.232 43284.2 43286.4 15714.6 -0.00200817 0.368269 -0.00157639
259 2 0 27.925 20.511 43156.6 43159 13508.6 0.000750428 0.543102 2.31275e-05
260 2 3.2245 27.925 22.79 29869.7 29871.8 -82132 -0.00594194 0.366799 -0.000128619
261 2 1.61225 27.925 25.069 -205991 -205989 7858.57 -0.00591192 0.0935185 -0.000124842
262 2 2.41837 29.3212 20.511 43156.7 43159 13508.6 -0.00148814 0.545807 -0.000797897
263 2 0.806124 29.3212 22.79 29869.7 29871.8 -82132 -7.80791e-05 0.36609 -7.16361e-05
264 2 4.03062 29.3212 25.069 -205991 -205989 7858.55 -0.00585302 0.0865878 0.00467024
265 2 0 30.7174 0 -205991 -205989 7857.41 3.48095e-05 0.271913 0.000391356
266 2 3.2245 30.7174 2.279 29869.7 29871.8 -82132 -0.000115077 0.366117 6.96779e-06
267 2 1.61225 30.7174 4.55799 43157 43159.1 13509.7 -4.14596e-05 0.36573 1.58769e-05
268 2 2.41837 32.1137 0 -205991 -205989 7857.41 -0.000109642 0.272146 0.000319734
269 2 0.806124 32.1137 2.279 29869.7 29871.8 -82132 -2.27755e-05 0.36597 2.5536e-05
270 2 4.03062 32.1137 4.55799 43157 43159.1 13509.7 -0.00010707 0.365526 0.000160756
271 2 0 30.7174 6.83699 43283.9 43286.2 15713.4 -3.65596e-05 0.544185 0.000247098
272 2 3.2245 30.7174 9.11598 43284.3 43286.4 15716 -0.000482194 0.366661 -0.000399355
273 2 1.61225 30.7174 11.395 43284.3 43286.4 15716 -0.000629138 0.366933 -0.000541083
274 2 2.41837 32.1137 6.83699 43283.9 43286.2 15713.4 0.000209539 0.543343 0.000130005
275 2 0.806124 32.1137 9.11598 43284.2 43286.4 15716 5.64751e-05 0.365869 0.000269349
276 2 4.03062 32.1137 11.395 43284.2 43286.4 15716 -0.000906274 0.367368 -0.000683324
277 2 0 30.7174 13.674 43283.9 43286.2 15714.9 -0.000111626 0.544177 -0.000919754
278 2 3.2245 30.7174 15.953 43284.2 43286.4 15716 0.00273816 0.362982 0.00139692
279 2 1.61225 30.7174 18.232 43284.2 43286.3 15714.5 0.00294282 0.363639 0.00109278
280 2 2.41837 32.1137 13.674 43283.9 43286.2 15714.9 -0.000687293 0.544742 -0.000339362
281 2 0.806124 32.1137 15.953 43284.2 43286.4 15716 -3.33033e-05 0.365817 -0.000594373
282 2 4.03062 32.1137 18.232 43284.2 43286.3 15714.6 0.00106161 0.365436 9.04177e-05
283 2 0 30.7174 20.511 43156.6 43158.9 13508.6 -2.39677e-05 0.543729 0.000677436
284 2 3.2245 30.7174 22.79 29869.7 29871.8 -82132 -0.00147408 0.366664 -0.000408667
285 2 1.61225 30.7174 25.069 -205991 -205989 7858.57 -0.00192582 0.0953829 -0.000596543
286 2 2.41837 32.1137 20.511 43156.6 43159 13508.6 0.00189741 0.543469 8.10429e-05
287 2 0.806124 32.1137 22.79 29869.7 29871.8 -82132 0.000446218 0.365956 0.000158106
288 2 4.03062 32.1137 25.069 -205991 -205989 7858.56 -0.00727672 0.0939938 9.19266e-05
289 2 0 33.5099 0 -205991 -205989 7857.41 3.48498e-05 0.271977 0.000360672
290 2 3.2245 33.5099 2.279 29869.7 29871.8 -82132 -0.000116353 0.366058 -1.27866e-05
291 2 1.61225 33.5099 4.55799 43157 43159.1 13509.7 -0.000103225 0.365939 -0.00019052
292 2 2.41837 34.9062 0 -205991 -205989 7857.41 6.29083e-05 0.271888 0.000155614
293 2 0.806124 34.9062 2.279 29869.7 29871.8 -82132 -2.19122e-06 0.365945 8.14233e-05
294 2 4.03062 34.9062 4.55799 43157 43159.1 13509.7 -0.000159472 0.365911 1.08635e-05
295 2 0 33.5099 6.83699 43283.9 43286.2 15713.4 -6.13707e-05 0.544162 -0.000191439
296 2 3.2245 33.5099 9.11598 43284.2 43286.4 15716 0.000147482 0.36585 3.11518e-06
297 2 1.61225 33.5099 11.395 43284.2 43286.4 15716 -0.000248673 0.366386 0.000153369
298 2 2.41837 34.9062 6.83699 43283.9 43286.2 15713.4 0.000122302 0.543757 -8.45049e-05
299 2 0.806124 34.9062 9.11598 43284.2 43286.4 15716 9.00105e-05 0.365838 0.000180565
300 2 4.03062 34.9062 11.395 43284.2 43286.4 15716 -0.000450094 0.366671 -0.000430672
301 2 0 33.5099 13.674 43283.9 43286.2 15714.9 0.000224059 0.543744 -0.000197706
302 2 3.2245 33.5099 15.953 43284.2 43286.4 15716 0.000757315 0.364901 0.000837051
303 2 1.61225 33.5099 18.232 43284.2 43286.3 15714.5 0.00116395 0.364789 -2.70324e-05
304 2 2.41837 34.9062 13.674 43283.9 43286.2 15714.9 -0.000916193 0.544901 -0.000145319
305 2 0.806124 34.9062 15.953 43284.2 43286.4 15716 -0.00031752 0.366096 -0.000435547
306 2 4.03062 34.9062 18.232 43284.2 43286.3 15714.5 0.00205948 0.364389 0.00126964
307 2 0 33.5099 20.511 43156.6 43158.9 13508.6 -0.00089209 0.544428 7.34854e-05
308 2 3.2245 33.5099 22.79 29869.7 29871.8 -82132 0.000308138 0.366132 -0.000195424
309 2 1.61225 33.5099 25.069 -205991 -205989 7858.56 0.00203746 0.0946089 3.07019e-06
310 2 2.41837 34.9062 20.511 43156.6 43158.9 13508.6 0.00171303 0.543032 0.000182642
311 2 0.806124 34.9062 22.79 29869.7 29871.8 -82132 0.000211306 0.365883 6.26788e-05
312 2 4.03062 34.9062 25.069 -205991 -205989 7858.57 0.000624764 0.0948391 -0.000959435
313 2 0 36.3024 0 -205991 -205989 7857.41 -2.19723e-05 0.272027 1.86712e-05
314 2 3.2245 36.3024 2.279 29869.7 29871.8 -82132 -4.68607e-06 0.365953 6.67798e-05
315 2 1.61225 36.3024 4.55799 43157 43159.1 13509.7 -7.1063e-05 0.365981 4.83276e-05
316 2 2.41837 37.6987 0 -205991 -205989 7857.41 0.000286484 0.271834 -9.79034e-05
317 2 0.806124 37.6987 2.279 29869.7 29871.8 -82132 1.77961e-05 0.365925 0.000171269
318 2 4.03062 37.6987 4.55799 43157 43159.1 13509.7 -9.92865e-05 0.365962 7.56355e-05
319 2 0 36.3024 6.83699 43283.9 43286.2 15713.4 -1.47689e-05 0.544045 -0.000232596
320 2 3.2245 36.3024 9.11598 43284.2 43286.4 15716 0.00032786 0.365628 0.000175603
321 2 1.61225 36.3024 11.395 43284.2 43286.4 15716 0.000155781 0.365821 0.000501133
322 2 2.41837 37.6987 6.83699 43283.9 43286.2 15713.4 -0.000112949 0.54409 -0.000117961
323 2 0.806124 37.6987 9.11598 43284.2 43286.4 15716 -8.28276e-06 0.365914 -0.000135054
324 2 4.03062 37.6987 11.395 43284.2 43286.4 15716 0.00018045 0.365813 0.000193646
325 2 0 36.3024 13.674 43283.9 43286.2 15714.9 0.000184404 0.543833 0.000494086
326 2 3.2245 36.3024 15.953 43284.2 43286.4 15716 -0.00106286 0.366489 -0.000236361
327 2 1.61225 36.3024 18.232 43284.2 43286.3 15714.5 -0.000646686 0.366135 -0.000612315
328 2 2.41837 37.6987 13.674 43283.9 43286.2 15714.9 -7.76508e-05 0.544081 0.000350628
329 2 0.806124 37.6987 15.953 43284.2 43286.4 15716 -5.13737e-05 0.365955 0.000171148
330 2 4.03062 37.6987 18.232 43284.2 43286.3 15714.5 -0.000632363 0.36614 -0.000137353
331 2 0 36.3024 20.511 43156.6 43158.9 13508.6 -0.000203287 0.544178 -0.000576175
332 2 3.2245 36.3024 22.79 29869.7 29871.8 -82132 0.000820236 0.365747 6.35966e-05
333 2 1.61225 36.3024 25.069 -205991 -205989 7858.56 0.00092225 0.0936011 0.000394832
334 2 2.41837 37.6987 20.511 43156.6 43158.9 13508.6 -0.000511595 0.544127 -0.000385454
335 2 0.806124 37.6987 22.79 29869.7 29871.8 -82132 -9.11248e-05 0.365982 -0.000159782
336 2 4.03062 37.6987 25.069 -205991 -205989 7858.56 0.00146695 0.0936432 8.70198e-05
337 2 0 39.0949 0 -205991 -205989 7857.41 -8.16604e-05 0.27204 -0.000192073
338 2 3.2245 39.0949 2.279 29869.7 29871.8 -82132 8.51759e-05 0.365844 0.000141213
339 2 1.61225 39.0949 4.55799 43157 43159.1 13509.7 -1.11534e-05 0.365865 0.000321917
340 2 2.41837 40.4912 0 -205991 -205989 7857.41 0.00026757 0.271904 -0.000133903
341 2 0.806124 40.4912 2.279 29869.7 29871.8 -82132 1.27721e-05 0.365915 0.00016318
342 2 4.03062 40.4912 4.55799 43157 43159.1 13509.7 -3.42694e-05 0.365716 0.000129794
343 2 0 39.0949 6.83699 43283.9 43286.2 15713.4 4.33224e-05 0.54398 -3.96952e-05
344 2 3.2245 39.0949 9.11598 43284.2 43286.4 15716 -2.47917e-05 0.36592 -5.37829e-05
345 2 1.61225 39.0949 11.395 43284.2 43286.4 15716 0.00011651 0.365813 0.000128948
346 2 2.41837 40.4912 6.83699 43283.9 43286.2 15713.4 -0.000157613 0.544059 -3.99639e-05
347 2 0.806124 40.4912 9.11598 43284.2 43286.4 15716 -3.40156e-05 0.365949 -0.000222015
348 2 4.03062 40.4912 11.395 43284.2 43286.4 15716 0.000210051 0.365837 0.000244912
349 2 0 39.0949 13.674 43283.9 43286.2 15714.9 -3.88053e-05 0.544041 0.000433148
350 2 3.2245 39.0949 15.953 43284.2 43286.4 15716 -0.000242413 0.36611 2.20193e-06
351 2 1.61225 39.0949 18.232 43284.2 43286.3 15714.5 -0.000271127 0.366118 -0.00012695
352 2 2.41837 40.4912 13.674 43283.9 43286.2 15714.9 0.00029888 0.543863 0.000312386
353 2 0.806124 40.4912 15.953 43284.2 43286.4 15716 7.53007e-05 0.365884 0.000319864
354 2 4.03062 40.4912 18.232 43284.2 43286.3 15714.5 -0.000430184 0.366179 -0.000313677
355 2 0 39.0949 20.511 43156.6 43158.9 13508.6 0.000179762 0.543946 -0.000308447