 vasp.5.4.4.18Apr17-6-g9f103f2a35 (build Nov 06 2023 00:46:14) complex          
  
 executed on             LinuxIFC date 2025.07.20  21:59:35
 running on   48 total cores
 distrk:  each k-point on   48 cores,    1 groups
 distr:  one band on NCORES_PER_BAND=   4 cores,   12 groups


--------------------------------------------------------------------------------------------------------


 INCAR:
 POTCAR:    PAW_PBE Pt 04Feb2005                  
 POTCAR:    PAW_PBE Pt 04Feb2005                  
  local pseudopotential read in
  partial core-charges read in
  partial kinetic energy density read in
  atomic valenz-charges read in
  non local Contribution for L=           2  read in
    real space projection operators read in
  non local Contribution for L=           2  read in
    real space projection operators read in
  non local Contribution for L=           0  read in
    real space projection operators read in
  non local Contribution for L=           0  read in
    real space projection operators read in
  non local Contribution for L=           1  read in
    real space projection operators read in
  non local Contribution for L=           1  read in
    real space projection operators read in
    PAW grid and wavefunctions read in
 
   number of l-projection  operators is LMAX  =           6
   number of lm-projection operators is LMMAX =          18
 
  PAW_PBE Pt 04Feb2005                  :
 energy of atom  1       EATOM= -729.1176
 kinetic energy error for atom=    0.0056 (will be added to EATOM!!)
 
 
 POSCAR: Pt                                      
  positions in cartesian coordinates
  No initial velocities read in
 exchange correlation table for  LEXCH =        8
   RHO(1)=    0.500       N(1)  =     2000
   RHO(2)=  100.500       N(2)  =     4000

 VTST: version 3.2, (02/03/18)

 CHAIN: initializing optimizer
 
 OPT: Using VASP QUASI-newton optimizer
 CHAIN: Read ICHAIN            0
 
 POSCAR: Pt                                      
  positions in cartesian coordinates
  No initial velocities read in
 


--------------------------------------------------------------------------------------------------------


 ion  position               nearest neighbor table
   1  0.000  0.000  0.000-   4 2.76   4 2.76   4 2.76   4 2.76   2 2.81   5 2.82   5 2.82
   2  0.667  0.000  0.093-   5 2.76   5 2.76   5 2.76   5 2.76   1 2.81   3 2.81   4 2.82   4 2.82
                             6 2.82   6 2.82
   3  0.333  0.000  0.186-   6 2.76   6 2.76   6 2.76   6 2.76   7 2.81   2 2.81   8 2.82   8 2.82
                             5 2.82   5 2.82
   4  0.500  0.500  0.000-   1 2.76   1 2.76   1 2.76   1 2.76   5 2.81   2 2.82   2 2.82
   5  0.167  0.500  0.093-   2 2.76   2 2.76   2 2.76   2 2.76   4 2.81   6 2.81   1 2.82   1 2.82
                             3 2.82   3 2.82
   6  0.833  0.500  0.186-   3 2.76   3 2.76   3 2.76   3 2.76   8 2.81   5 2.81   7 2.82   7 2.82
                             2 2.82   2 2.82
   7  0.000  0.000  0.278-   8 2.76   8 2.76   8 2.76   8 2.76   3 2.81   6 2.82   6 2.82
   8  0.500  0.500  0.278-   7 2.76   7 2.76   7 2.76   7 2.76   6 2.81   3 2.82   3 2.82
 

IMPORTANT INFORMATION: All symmetrisations will be switched off!
NOSYMM: (Re-)initialisation of all symmetry stuff for point group C_1.

 
 
 KPOINTS: K-Spacing Value to Generate K-Mesh: 0.02

Automatic generation of k-mesh.
Space group operators:
 irot       det(A)        alpha          n_x          n_y          n_z        tau_x        tau_y        tau_z
    1     1.000000     0.000000     1.000000     0.000000     0.000000     0.000000     0.000000     0.000000
 
 Subroutine IBZKPT returns following result:
 ===========================================
 
 Found    100 irreducible k-points:
 
 Following reciprocal coordinates:
            Coordinates               Weight
  0.000000  0.000000  0.000000      1.000000
  0.090909  0.000000  0.000000      2.000000
  0.181818  0.000000  0.000000      2.000000
  0.272727  0.000000  0.000000      2.000000
  0.363636  0.000000  0.000000      2.000000
  0.454545  0.000000  0.000000      2.000000
  0.000000  0.055556  0.000000      2.000000
  0.090909  0.055556  0.000000      2.000000
  0.181818  0.055556  0.000000      2.000000
  0.272727  0.055556  0.000000      2.000000
  0.363636  0.055556  0.000000      2.000000
  0.454545  0.055556  0.000000      2.000000
 -0.454545  0.055556  0.000000      2.000000
 -0.363636  0.055556  0.000000      2.000000
 -0.272727  0.055556  0.000000      2.000000
 -0.181818  0.055556  0.000000      2.000000
 -0.090909  0.055556  0.000000      2.000000
  0.000000  0.111111  0.000000      2.000000
  0.090909  0.111111  0.000000      2.000000
  0.181818  0.111111  0.000000      2.000000
  0.272727  0.111111  0.000000      2.000000
  0.363636  0.111111  0.000000      2.000000
  0.454545  0.111111  0.000000      2.000000
 -0.454545  0.111111  0.000000      2.000000
 -0.363636  0.111111  0.000000      2.000000
 -0.272727  0.111111  0.000000      2.000000
 -0.181818  0.111111  0.000000      2.000000
 -0.090909  0.111111  0.000000      2.000000
  0.000000  0.166667  0.000000      2.000000
  0.090909  0.166667  0.000000      2.000000
  0.181818  0.166667  0.000000      2.000000
  0.272727  0.166667  0.000000      2.000000
  0.363636  0.166667  0.000000      2.000000
  0.454545  0.166667  0.000000      2.000000
 -0.454545  0.166667  0.000000      2.000000
 -0.363636  0.166667  0.000000      2.000000
 -0.272727  0.166667  0.000000      2.000000
 -0.181818  0.166667  0.000000      2.000000
 -0.090909  0.166667  0.000000      2.000000
  0.000000  0.222222  0.000000      2.000000
  0.090909  0.222222  0.000000      2.000000
  0.181818  0.222222  0.000000      2.000000
  0.272727  0.222222  0.000000      2.000000
  0.363636  0.222222  0.000000      2.000000
  0.454545  0.222222  0.000000      2.000000
 -0.454545  0.222222  0.000000      2.000000
 -0.363636  0.222222  0.000000      2.000000
 -0.272727  0.222222  0.000000      2.000000
 -0.181818  0.222222  0.000000      2.000000
 -0.090909  0.222222  0.000000      2.000000
  0.000000  0.277778  0.000000      2.000000
  0.090909  0.277778  0.000000      2.000000
  0.181818  0.277778  0.000000      2.000000
  0.272727  0.277778  0.000000      2.000000
  0.363636  0.277778  0.000000      2.000000
  0.454545  0.277778  0.000000      2.000000
 -0.454545  0.277778  0.000000      2.000000
 -0.363636  0.277778  0.000000      2.000000
 -0.272727  0.277778  0.000000      2.000000
 -0.181818  0.277778  0.000000      2.000000
 -0.090909  0.277778  0.000000      2.000000
  0.000000  0.333333  0.000000      2.000000
  0.090909  0.333333  0.000000      2.000000
  0.181818  0.333333  0.000000      2.000000
  0.272727  0.333333  0.000000      2.000000
  0.363636  0.333333  0.000000      2.000000
  0.454545  0.333333  0.000000      2.000000
 -0.454545  0.333333  0.000000      2.000000
 -0.363636  0.333333  0.000000      2.000000
 -0.272727  0.333333  0.000000      2.000000
 -0.181818  0.333333  0.000000      2.000000
 -0.090909  0.333333  0.000000      2.000000
  0.000000  0.388889  0.000000      2.000000
  0.090909  0.388889  0.000000      2.000000
  0.181818  0.388889  0.000000      2.000000
  0.272727  0.388889  0.000000      2.000000
  0.363636  0.388889  0.000000      2.000000
  0.454545  0.388889  0.000000      2.000000
 -0.454545  0.388889  0.000000      2.000000
 -0.363636  0.388889  0.000000      2.000000
 -0.272727  0.388889  0.000000      2.000000
 -0.181818  0.388889  0.000000      2.000000
 -0.090909  0.388889  0.000000      2.000000
  0.000000  0.444444  0.000000      2.000000
  0.090909  0.444444  0.000000      2.000000
  0.181818  0.444444  0.000000      2.000000
  0.272727  0.444444  0.000000      2.000000
  0.363636  0.444444  0.000000      2.000000
  0.454545  0.444444  0.000000      2.000000
 -0.454545  0.444444  0.000000      2.000000
 -0.363636  0.444444  0.000000      2.000000
 -0.272727  0.444444  0.000000      2.000000
 -0.181818  0.444444  0.000000      2.000000
 -0.090909  0.444444  0.000000      2.000000
  0.000000  0.500000  0.000000      1.000000
  0.090909  0.500000  0.000000      2.000000
  0.181818  0.500000  0.000000      2.000000
  0.272727  0.500000  0.000000      2.000000
  0.363636  0.500000  0.000000      2.000000
  0.454545  0.500000  0.000000      2.000000
 
 Following cartesian coordinates:
            Coordinates               Weight
  0.000000  0.000000  0.000000      1.000000
  0.019092  0.000000  0.000000      2.000000
  0.038183  0.000000  0.000000      2.000000
  0.057275  0.000000  0.000000      2.000000
  0.076367  0.000000  0.000000      2.000000
  0.095458  0.000000  0.000000      2.000000
  0.000000  0.019804  0.000000      2.000000
  0.019092  0.019804  0.000000      2.000000
  0.038183  0.019804  0.000000      2.000000
  0.057275  0.019804  0.000000      2.000000
  0.076367  0.019804  0.000000      2.000000
  0.095458  0.019804  0.000000      2.000000
 -0.095458  0.019804  0.000000      2.000000
 -0.076367  0.019804  0.000000      2.000000
 -0.057275  0.019804  0.000000      2.000000
 -0.038183  0.019804  0.000000      2.000000
 -0.019092  0.019804  0.000000      2.000000
  0.000000  0.039608  0.000000      2.000000
  0.019092  0.039608  0.000000      2.000000
  0.038183  0.039608  0.000000      2.000000
  0.057275  0.039608  0.000000      2.000000
  0.076367  0.039608  0.000000      2.000000
  0.095458  0.039608  0.000000      2.000000
 -0.095458  0.039608  0.000000      2.000000
 -0.076367  0.039608  0.000000      2.000000
 -0.057275  0.039608  0.000000      2.000000
 -0.038183  0.039608  0.000000      2.000000
 -0.019092  0.039608  0.000000      2.000000
  0.000000  0.059412  0.000000      2.000000
  0.019092  0.059412  0.000000      2.000000
  0.038183  0.059412  0.000000      2.000000
  0.057275  0.059412  0.000000      2.000000
  0.076367  0.059412  0.000000      2.000000
  0.095458  0.059412  0.000000      2.000000
 -0.095458  0.059412  0.000000      2.000000
 -0.076367  0.059412  0.000000      2.000000
 -0.057275  0.059412  0.000000      2.000000
 -0.038183  0.059412  0.000000      2.000000
 -0.019092  0.059412  0.000000      2.000000
  0.000000  0.079216  0.000000      2.000000
  0.019092  0.079216  0.000000      2.000000
  0.038183  0.079216  0.000000      2.000000
  0.057275  0.079216  0.000000      2.000000
  0.076367  0.079216  0.000000      2.000000
  0.095458  0.079216  0.000000      2.000000
 -0.095458  0.079216  0.000000      2.000000
 -0.076367  0.079216  0.000000      2.000000
 -0.057275  0.079216  0.000000      2.000000
 -0.038183  0.079216  0.000000      2.000000
 -0.019092  0.079216  0.000000      2.000000
  0.000000  0.099019  0.000000      2.000000
  0.019092  0.099019  0.000000      2.000000
  0.038183  0.099019  0.000000      2.000000
  0.057275  0.099019  0.000000      2.000000
  0.076367  0.099019  0.000000      2.000000
  0.095458  0.099019  0.000000      2.000000
 -0.095458  0.099019  0.000000      2.000000
 -0.076367  0.099019  0.000000      2.000000
 -0.057275  0.099019  0.000000      2.000000
 -0.038183  0.099019  0.000000      2.000000
 -0.019092  0.099019  0.000000      2.000000
  0.000000  0.118823  0.000000      2.000000
  0.019092  0.118823  0.000000      2.000000
  0.038183  0.118823  0.000000      2.000000
  0.057275  0.118823  0.000000      2.000000
  0.076367  0.118823  0.000000      2.000000
  0.095458  0.118823  0.000000      2.000000
 -0.095458  0.118823  0.000000      2.000000
 -0.076367  0.118823  0.000000      2.000000
 -0.057275  0.118823  0.000000      2.000000
 -0.038183  0.118823  0.000000      2.000000
 -0.019092  0.118823  0.000000      2.000000
  0.000000  0.138627  0.000000      2.000000
  0.019092  0.138627  0.000000      2.000000
  0.038183  0.138627  0.000000      2.000000
  0.057275  0.138627  0.000000      2.000000
  0.076367  0.138627  0.000000      2.000000
  0.095458  0.138627  0.000000      2.000000
 -0.095458  0.138627  0.000000      2.000000
 -0.076367  0.138627  0.000000      2.000000
 -0.057275  0.138627  0.000000      2.000000
 -0.038183  0.138627  0.000000      2.000000
 -0.019092  0.138627  0.000000      2.000000
  0.000000  0.158431  0.000000      2.000000
  0.019092  0.158431  0.000000      2.000000
  0.038183  0.158431  0.000000      2.000000
  0.057275  0.158431  0.000000      2.000000
  0.076367  0.158431  0.000000      2.000000
  0.095458  0.158431  0.000000      2.000000
 -0.095458  0.158431  0.000000      2.000000
 -0.076367  0.158431  0.000000      2.000000
 -0.057275  0.158431  0.000000      2.000000
 -0.038183  0.158431  0.000000      2.000000
 -0.019092  0.158431  0.000000      2.000000
  0.000000  0.178235  0.000000      1.000000
  0.019092  0.178235  0.000000      2.000000
  0.038183  0.178235  0.000000      2.000000
  0.057275  0.178235  0.000000      2.000000
  0.076367  0.178235  0.000000      2.000000
  0.095458  0.178235  0.000000      2.000000
 


--------------------------------------------------------------------------------------------------------




 Dimension of arrays:
   k-points           NKPTS =    100   k-points in BZ     NKDIM =    100   number of bands    NBANDS=     48
   number of dos      NEDOS =    301   number of ions     NIONS =      8
   non local maximal  LDIM  =      6   non local SUM 2l+1 LMDIM =     18
   total plane-waves  NPLWV =  42336
   max r-space proj   IRMAX =      1   max aug-charges    IRDMAX=   7877
   dimension x,y,z NGX =    24 NGY =   14 NGZ =  126
   dimension x,y,z NGXF=    48 NGYF=   28 NGZF=  252
   support grid    NGXF=    48 NGYF=   28 NGZF=  252
   ions per type =               8
   NGX,Y,Z   is equivalent  to a cutoff of   8.38,  8.30,  8.38 a.u.
   NGXF,Y,Z  is equivalent  to a cutoff of  16.76, 16.59, 16.76 a.u.

 SYSTEM =  Pt111                                   
 POSCAR =  Pt                                      

 Startparameter for this run:
   NWRITE =      0    write-flag & timer
   PREC   = normal    normal or accurate (medium, high low for compatibility)
   ISTART =      0    job   : 0-new  1-cont  2-samecut
   ICHARG =      2    charge: 1-file 2-atom 10-const
   ISPIN  =      1    spin polarized calculation?
   LNONCOLLINEAR =      F non collinear calculations
   LSORBIT =      F    spin-orbit coupling
   INIWAV =      1    electr: 0-lowe 1-rand  2-diag
   LASPH  =      F    aspherical Exc in radial PAW
   METAGGA=      F    non-selfconsistent MetaGGA calc.

 Electronic Relaxation 1
   ENCUT  =  400.0 eV  29.40 Ry    5.42 a.u.   7.77  4.57 40.77*2*pi/ulx,y,z
   ENINI  =  400.0     initial cutoff
   ENAUG  =  359.0 eV  augmentation charge cutoff
   NELM   =     60;   NELMIN=  2; NELMDL= -5     # of ELM steps 
   EDIFF  = 0.1E-05   stopping-criterion for ELM
   LREAL  =      F    real-space projection
   NLSPLINE    = F    spline interpolate recip. space projectors
   LCOMPAT=      F    compatible to vasp.4.4
   GGA_COMPAT  = T    GGA compatible to vasp.4.4-vasp.4.6
   LMAXPAW     = -100 max onsite density
   LMAXMIX     =    2 max onsite mixed and CHGCAR
   VOSKOWN=      0    Vosko Wilk Nusair interpolation
   ROPT   =    0.00000
 Ionic relaxation
   EDIFFG = -.1E-01   stopping-criterion for IOM
   NSW    =     50    number of steps for IOM
   NBLOCK =      1;   KBLOCK =     50    inner block; outer block 
   IBRION =      1    ionic relax: 0-MD 1-quasi-New 2-CG
   NFREE  =      0    steps in history (QN), initial steepest desc. (CG)
   ISIF   =      2    stress and relaxation
   IWAVPR =     11    prediction:  0-non 1-charg 2-wave 3-comb
   ISYM   =      0    0-nonsym 1-usesym 2-fastsym
   LCORR  =      T    Harris-Foulkes like correction to forces

   POTIM  = 0.1000    time-step for ionic-motion
   TEIN   =    0.0    initial temperature
   TEBEG  =    0.0;   TEEND  =   0.0 temperature during run
   SMASS  =  -3.00    Nose mass-parameter (am)
   estimated Nose-frequenzy (Omega)   =  0.10E-29 period in steps =****** mass=  -0.518E-27a.u.
   SCALEE = 1.0000    scale energy and forces
   NPACO  =    256;   APACO  = 16.0  distance and # of slots for P.C.
   PSTRESS=    0.0 pullay stress

  Mass of Ions in am
   POMASS = 195.08
  Ionic Valenz
   ZVAL   =  10.00
  Atomic Wigner-Seitz radii
   RWIGS  =  -1.00
  virtual crystal weights 
   VCA    =   1.00
   NELECT =      80.0000    total number of electrons
   NUPDOWN=      -1.0000    fix difference up-down

 DOS related values:
   EMIN   =  10.00;   EMAX   =-10.00  energy-range for DOS
   EFERMI =   0.00
   ISMEAR =     1;   SIGMA  =   0.10  broadening in eV -4-tet -1-fermi 0-gaus

 Electronic relaxation 2 (details)
   IALGO  =     68    algorithm
   LDIAG  =      T    sub-space diagonalisation (order eigenvalues)
   LSUBROT=      F    optimize rotation matrix (better conditioning)
   TURBO    =      0    0=normal 1=particle mesh
   IRESTART =      0    0=no restart 2=restart with 2 vectors
   NREBOOT  =      0    no. of reboots
   NMIN     =      0    reboot dimension
   EREF     =   0.00    reference energy to select bands
   IMIX   =      4    mixing-type and parameters
     AMIX     =   0.40;   BMIX     =  1.00
     AMIX_MAG =   1.60;   BMIX_MAG =  1.00
     AMIN     =   0.10
     WC   =   100.;   INIMIX=   1;  MIXPRE=   1;  MAXMIX= -45

 Intra band minimization:
   WEIMIN = 0.0010     energy-eigenvalue tresh-hold
   EBREAK =  0.52E-08  absolut break condition
   DEPER  =   0.30     relativ break condition  

   TIME   =   0.40     timestep for ELM

  volume/ion in A,a.u.               =      41.74       281.70
  Fermi-wavevector in a.u.,A,eV,Ry     =   1.016743  1.921366 14.065250  1.033767
  Thomas-Fermi vector in A             =   2.150104
 
 Write flags
   LWAVE        =      F    write WAVECAR
   LDOWNSAMPLE  =      F    k-point downsampling of WAVECAR
   LCHARG       =      F    write CHGCAR
   LVTOT        =      F    write LOCPOT, total local potential
   LVHAR        =      F    write LOCPOT, Hartree potential only
   LELF         =      F    write electronic localiz. function (ELF)
   LORBIT       =      0    0 simple, 1 ext, 2 COOP (PROOUT), +10 PAW based schemes


 Dipole corrections
   LMONO  =      F    monopole corrections only (constant potential shift)
   LDIPOL =      T    correct potential (dipole corrections)
   IDIPOL =      3    1-x, 2-y, 3-z, 4-all directions 
   EPSILON=  1.0000000 bulk dielectric constant

 Exchange correlation treatment:
   GGA     =    --    GGA type
   LEXCH   =     8    internal setting for exchange type
   VOSKOWN=      0    Vosko Wilk Nusair interpolation
   LHFCALC =     F    Hartree Fock is set to
   LHFONE  =     F    Hartree Fock one center treatment
   AEXX    =    0.0000 exact exchange contribution

 Linear response parameters
   LEPSILON=     F    determine dielectric tensor
   LRPA    =     F    only Hartree local field effects (RPA)
   LNABLA  =     F    use nabla operator in PAW spheres
   LVEL    =     F    velocity operator in full k-point grid
   LINTERFAST=   F  fast interpolation
   KINTER  =     0    interpolate to denser k-point grid
   CSHIFT  =0.1000    complex shift for real part using Kramers Kronig
   OMEGAMAX=  -1.0    maximum frequency
   DEG_THRESHOLD= 0.2000000E-02 threshold for treating states as degnerate
   RTIME   =   -0.100 relaxation time in fs
  (WPLASMAI=    0.000 imaginary part of plasma frequency in eV, 0.658/RTIME)
   DFIELD  = 0.0000000 0.0000000 0.0000000 field for delta impulse in time
 
 Orbital magnetization related:
   ORBITALMAG=     F  switch on orbital magnetization
   LCHIMAG   =     F  perturbation theory with respect to B field
   DQ        =  0.001000  dq finite difference perturbation B field
   LLRAUG    =     F  two centre corrections for induced B field



--------------------------------------------------------------------------------------------------------


 quasi-Newton-method for relaxation of ions
   using selective dynamics as specified on POSCAR
   WARNING: If single coordinates had been selected the selection of coordinates
            is made according to the corresponding   d i r e c t   coordinates!
            Don't support selection of single cartesian coordinates -- sorry ...
  !
 charge density and potential will be updated during run
 non-spin polarized calculation
 RMM-DIIS sequential band-by-band and
  variant of blocked Davidson during initial phase
 perform sub-space diagonalisation
    before iterative eigenvector-optimisation
 modified Broyden-mixing scheme, WC =      100.0
 initial mixing is a Kerker type mixing with AMIX =  0.4000 and BMIX =      1.0000
 Hartree-type preconditioning will be used
 using additional bands            8
 reciprocal scheme for non local part
 use partial core corrections
 calculate Harris-corrections to forces 
   (improved forces if not selfconsistent)
 use gradient corrections 
 use of overlap-Matrix (Vanderbilt PP)
 Methfessel and Paxton  Order N= 1 SIGMA  =   0.10


--------------------------------------------------------------------------------------------------------


  energy-cutoff  :      400.00
  volume of cell :      333.95
      direct lattice vectors                 reciprocal lattice vectors
     4.761718090  0.000000000  0.000000000     0.210008233  0.000000000  0.000000000
     0.000000000  2.805284920  0.000000000     0.000000000  0.356470030  0.000000000
     0.000000000  0.000000000 25.000000000     0.000000000  0.000000000  0.040000000

  length of vectors
     4.761718090  2.805284920 25.000000000     0.210008233  0.356470030  0.040000000


 
 k-points in units of 2pi/SCALE and weight: K-Spacing Value to Generate K-Mesh: 0.02
   0.00000000  0.00000000  0.00000000       0.005
   0.01909166  0.00000000  0.00000000       0.010
   0.03818332  0.00000000  0.00000000       0.010
   0.05727497  0.00000000  0.00000000       0.010
   0.07636663  0.00000000  0.00000000       0.010
   0.09545829  0.00000000  0.00000000       0.010
   0.00000000  0.01980389  0.00000000       0.010
   0.01909166  0.01980389  0.00000000       0.010
   0.03818332  0.01980389  0.00000000       0.010
   0.05727497  0.01980389  0.00000000       0.010
   0.07636663  0.01980389  0.00000000       0.010
   0.09545829  0.01980389  0.00000000       0.010
  -0.09545829  0.01980389  0.00000000       0.010
  -0.07636663  0.01980389  0.00000000       0.010
  -0.05727497  0.01980389  0.00000000       0.010
  -0.03818332  0.01980389  0.00000000       0.010
  -0.01909166  0.01980389  0.00000000       0.010
   0.00000000  0.03960778  0.00000000       0.010
   0.01909166  0.03960778  0.00000000       0.010
   0.03818332  0.03960778  0.00000000       0.010
   0.05727497  0.03960778  0.00000000       0.010
   0.07636663  0.03960778  0.00000000       0.010
   0.09545829  0.03960778  0.00000000       0.010
  -0.09545829  0.03960778  0.00000000       0.010
  -0.07636663  0.03960778  0.00000000       0.010
  -0.05727497  0.03960778  0.00000000       0.010
  -0.03818332  0.03960778  0.00000000       0.010
  -0.01909166  0.03960778  0.00000000       0.010
   0.00000000  0.05941167  0.00000000       0.010
   0.01909166  0.05941167  0.00000000       0.010
   0.03818332  0.05941167  0.00000000       0.010
   0.05727497  0.05941167  0.00000000       0.010
   0.07636663  0.05941167  0.00000000       0.010
   0.09545829  0.05941167  0.00000000       0.010
  -0.09545829  0.05941167  0.00000000       0.010
  -0.07636663  0.05941167  0.00000000       0.010
  -0.05727497  0.05941167  0.00000000       0.010
  -0.03818332  0.05941167  0.00000000       0.010
  -0.01909166  0.05941167  0.00000000       0.010
   0.00000000  0.07921556  0.00000000       0.010
   0.01909166  0.07921556  0.00000000       0.010
   0.03818332  0.07921556  0.00000000       0.010
   0.05727497  0.07921556  0.00000000       0.010
   0.07636663  0.07921556  0.00000000       0.010
   0.09545829  0.07921556  0.00000000       0.010
  -0.09545829  0.07921556  0.00000000       0.010
  -0.07636663  0.07921556  0.00000000       0.010
  -0.05727497  0.07921556  0.00000000       0.010
  -0.03818332  0.07921556  0.00000000       0.010
  -0.01909166  0.07921556  0.00000000       0.010
   0.00000000  0.09901945  0.00000000       0.010
   0.01909166  0.09901945  0.00000000       0.010
   0.03818332  0.09901945  0.00000000       0.010
   0.05727497  0.09901945  0.00000000       0.010
   0.07636663  0.09901945  0.00000000       0.010
   0.09545829  0.09901945  0.00000000       0.010
  -0.09545829  0.09901945  0.00000000       0.010
  -0.07636663  0.09901945  0.00000000       0.010
  -0.05727497  0.09901945  0.00000000       0.010
  -0.03818332  0.09901945  0.00000000       0.010
  -0.01909166  0.09901945  0.00000000       0.010
   0.00000000  0.11882334  0.00000000       0.010
   0.01909166  0.11882334  0.00000000       0.010
   0.03818332  0.11882334  0.00000000       0.010
   0.05727497  0.11882334  0.00000000       0.010
   0.07636663  0.11882334  0.00000000       0.010
   0.09545829  0.11882334  0.00000000       0.010
  -0.09545829  0.11882334  0.00000000       0.010
  -0.07636663  0.11882334  0.00000000       0.010
  -0.05727497  0.11882334  0.00000000       0.010
  -0.03818332  0.11882334  0.00000000       0.010
  -0.01909166  0.11882334  0.00000000       0.010
   0.00000000  0.13862723  0.00000000       0.010
   0.01909166  0.13862723  0.00000000       0.010
   0.03818332  0.13862723  0.00000000       0.010
   0.05727497  0.13862723  0.00000000       0.010
   0.07636663  0.13862723  0.00000000       0.010
   0.09545829  0.13862723  0.00000000       0.010
  -0.09545829  0.13862723  0.00000000       0.010
  -0.07636663  0.13862723  0.00000000       0.010
  -0.05727497  0.13862723  0.00000000       0.010
  -0.03818332  0.13862723  0.00000000       0.010
  -0.01909166  0.13862723  0.00000000       0.010
   0.00000000  0.15843112  0.00000000       0.010
   0.01909166  0.15843112  0.00000000       0.010
   0.03818332  0.15843112  0.00000000       0.010
   0.05727497  0.15843112  0.00000000       0.010
   0.07636663  0.15843112  0.00000000       0.010
   0.09545829  0.15843112  0.00000000       0.010
  -0.09545829  0.15843112  0.00000000       0.010
  -0.07636663  0.15843112  0.00000000       0.010
  -0.05727497  0.15843112  0.00000000       0.010
  -0.03818332  0.15843112  0.00000000       0.010
  -0.01909166  0.15843112  0.00000000       0.010
   0.00000000  0.17823502  0.00000000       0.005
   0.01909166  0.17823502  0.00000000       0.010
   0.03818332  0.17823502  0.00000000       0.010
   0.05727497  0.17823502  0.00000000       0.010
   0.07636663  0.17823502  0.00000000       0.010
   0.09545829  0.17823502  0.00000000       0.010
 
 k-points in reciprocal lattice and weights: K-Spacing Value to Generate K-Mesh: 0.02
   0.00000000  0.00000000  0.00000000       0.005
   0.09090909  0.00000000  0.00000000       0.010
   0.18181818  0.00000000  0.00000000       0.010
   0.27272727  0.00000000  0.00000000       0.010
   0.36363636  0.00000000  0.00000000       0.010
   0.45454545  0.00000000  0.00000000       0.010
   0.00000000  0.05555556  0.00000000       0.010
   0.09090909  0.05555556  0.00000000       0.010
   0.18181818  0.05555556  0.00000000       0.010
   0.27272727  0.05555556  0.00000000       0.010
   0.36363636  0.05555556  0.00000000       0.010
   0.45454545  0.05555556  0.00000000       0.010
  -0.45454545  0.05555556  0.00000000       0.010
  -0.36363636  0.05555556  0.00000000       0.010
  -0.27272727  0.05555556  0.00000000       0.010
  -0.18181818  0.05555556  0.00000000       0.010
  -0.09090909  0.05555556  0.00000000       0.010
   0.00000000  0.11111111  0.00000000       0.010
   0.09090909  0.11111111  0.00000000       0.010
   0.18181818  0.11111111  0.00000000       0.010
   0.27272727  0.11111111  0.00000000       0.010
   0.36363636  0.11111111  0.00000000       0.010
   0.45454545  0.11111111  0.00000000       0.010
  -0.45454545  0.11111111  0.00000000       0.010
  -0.36363636  0.11111111  0.00000000       0.010
  -0.27272727  0.11111111  0.00000000       0.010
  -0.18181818  0.11111111  0.00000000       0.010
  -0.09090909  0.11111111  0.00000000       0.010
   0.00000000  0.16666667  0.00000000       0.010
   0.09090909  0.16666667  0.00000000       0.010
   0.18181818  0.16666667  0.00000000       0.010
   0.27272727  0.16666667  0.00000000       0.010
   0.36363636  0.16666667  0.00000000       0.010
   0.45454545  0.16666667  0.00000000       0.010
  -0.45454545  0.16666667  0.00000000       0.010
  -0.36363636  0.16666667  0.00000000       0.010
  -0.27272727  0.16666667  0.00000000       0.010
  -0.18181818  0.16666667  0.00000000       0.010
  -0.09090909  0.16666667  0.00000000       0.010
   0.00000000  0.22222222  0.00000000       0.010
   0.09090909  0.22222222  0.00000000       0.010
   0.18181818  0.22222222  0.00000000       0.010
   0.27272727  0.22222222  0.00000000       0.010
   0.36363636  0.22222222  0.00000000       0.010
   0.45454545  0.22222222  0.00000000       0.010
  -0.45454545  0.22222222  0.00000000       0.010
  -0.36363636  0.22222222  0.00000000       0.010
  -0.27272727  0.22222222  0.00000000       0.010
  -0.18181818  0.22222222  0.00000000       0.010
  -0.09090909  0.22222222  0.00000000       0.010
   0.00000000  0.27777778  0.00000000       0.010
   0.09090909  0.27777778  0.00000000       0.010
   0.18181818  0.27777778  0.00000000       0.010
   0.27272727  0.27777778  0.00000000       0.010
   0.36363636  0.27777778  0.00000000       0.010
   0.45454545  0.27777778  0.00000000       0.010
  -0.45454545  0.27777778  0.00000000       0.010
  -0.36363636  0.27777778  0.00000000       0.010
  -0.27272727  0.27777778  0.00000000       0.010
  -0.18181818  0.27777778  0.00000000       0.010
  -0.09090909  0.27777778  0.00000000       0.010
   0.00000000  0.33333333  0.00000000       0.010
   0.09090909  0.33333333  0.00000000       0.010
   0.18181818  0.33333333  0.00000000       0.010
   0.27272727  0.33333333  0.00000000       0.010
   0.36363636  0.33333333  0.00000000       0.010
   0.45454545  0.33333333  0.00000000       0.010
  -0.45454545  0.33333333  0.00000000       0.010
  -0.36363636  0.33333333  0.00000000       0.010
  -0.27272727  0.33333333  0.00000000       0.010
  -0.18181818  0.33333333  0.00000000       0.010
  -0.09090909  0.33333333  0.00000000       0.010
   0.00000000  0.38888889  0.00000000       0.010
   0.09090909  0.38888889  0.00000000       0.010
   0.18181818  0.38888889  0.00000000       0.010
   0.27272727  0.38888889  0.00000000       0.010
   0.36363636  0.38888889  0.00000000       0.010
   0.45454545  0.38888889  0.00000000       0.010
  -0.45454545  0.38888889  0.00000000       0.010
  -0.36363636  0.38888889  0.00000000       0.010
  -0.27272727  0.38888889  0.00000000       0.010
  -0.18181818  0.38888889  0.00000000       0.010
  -0.09090909  0.38888889  0.00000000       0.010
   0.00000000  0.44444444  0.00000000       0.010
   0.09090909  0.44444444  0.00000000       0.010
   0.18181818  0.44444444  0.00000000       0.010
   0.27272727  0.44444444  0.00000000       0.010
   0.36363636  0.44444444  0.00000000       0.010
   0.45454545  0.44444444  0.00000000       0.010
  -0.45454545  0.44444444  0.00000000       0.010
  -0.36363636  0.44444444  0.00000000       0.010
  -0.27272727  0.44444444  0.00000000       0.010
  -0.18181818  0.44444444  0.00000000       0.010
  -0.09090909  0.44444444  0.00000000       0.010
   0.00000000  0.50000000  0.00000000       0.005
   0.09090909  0.50000000  0.00000000       0.010
   0.18181818  0.50000000  0.00000000       0.010
   0.27272727  0.50000000  0.00000000       0.010
   0.36363636  0.50000000  0.00000000       0.010
   0.45454545  0.50000000  0.00000000       0.010
 
 position of ions in fractional coordinates (direct lattice) 
   0.00000000  0.00000000  0.00000000
   0.66666667  0.00000000  0.09276592
   0.33333333  0.00000000  0.18553184
   0.50000000  0.50000000  0.00000000
   0.16666667  0.50000000  0.09276592
   0.83333333  0.50000000  0.18553184
   0.00000000  0.00000000  0.27829775
   0.50000000  0.50000000  0.27829775
 
 position of ions in cartesian coordinates  (Angst):
   0.00000000  0.00000000  0.00000000
   3.17447874  0.00000000  2.31914792
   1.58723935  0.00000000  4.63829591
   2.38085904  1.40264246  0.00000000
   0.79361970  1.40264246  2.31914792
   3.96809839  1.40264246  4.63829591
   0.00000000  0.00000000  6.95744383
   2.38085904  1.40264246  6.95744383
 


--------------------------------------------------------------------------------------------------------


 k-point  1 :   0.0000 0.0000 0.0000  plane waves:    6047
 k-point  2 :   0.0909 0.0000 0.0000  plane waves:    6071
 k-point  3 :   0.1818 0.0000 0.0000  plane waves:    6087
 k-point  4 :   0.2727 0.0000 0.0000  plane waves:    6114
 k-point  5 :   0.3636 0.0000 0.0000  plane waves:    6122
 k-point  6 :   0.4545 0.0000 0.0000  plane waves:    6134
 k-point  7 :   0.0000 0.0556 0.0000  plane waves:    6047
 k-point  8 :   0.0909 0.0556 0.0000  plane waves:    6077
 k-point  9 :   0.1818 0.0556 0.0000  plane waves:    6085
 k-point 10 :   0.2727 0.0556 0.0000  plane waves:    6101
 k-point 11 :   0.3636 0.0556 0.0000  plane waves:    6111
 k-point 12 :   0.4545 0.0556 0.0000  plane waves:    6140
 k-point 13 :  -0.4545 0.0556 0.0000  plane waves:    6140
 k-point 14 :  -0.3636 0.0556 0.0000  plane waves:    6111
 k-point 15 :  -0.2727 0.0556 0.0000  plane waves:    6101
 k-point 16 :  -0.1818 0.0556 0.0000  plane waves:    6085
 k-point 17 :  -0.0909 0.0556 0.0000  plane waves:    6077
 k-point 18 :   0.0000 0.1111 0.0000  plane waves:    6075
 k-point 19 :   0.0909 0.1111 0.0000  plane waves:    6068
 k-point 20 :   0.1818 0.1111 0.0000  plane waves:    6085
 k-point 21 :   0.2727 0.1111 0.0000  plane waves:    6090
 k-point 22 :   0.3636 0.1111 0.0000  plane waves:    6109
 k-point 23 :   0.4545 0.1111 0.0000  plane waves:    6107
 k-point 24 :  -0.4545 0.1111 0.0000  plane waves:    6107
 k-point 25 :  -0.3636 0.1111 0.0000  plane waves:    6109
 k-point 26 :  -0.2727 0.1111 0.0000  plane waves:    6090
 k-point 27 :  -0.1818 0.1111 0.0000  plane waves:    6085
 k-point 28 :  -0.0909 0.1111 0.0000  plane waves:    6068
 k-point 29 :   0.0000 0.1667 0.0000  plane waves:    6093
 k-point 30 :   0.0909 0.1667 0.0000  plane waves:    6093
 k-point 31 :   0.1818 0.1667 0.0000  plane waves:    6078
 k-point 32 :   0.2727 0.1667 0.0000  plane waves:    6075
 k-point 33 :   0.3636 0.1667 0.0000  plane waves:    6087
 k-point 34 :   0.4545 0.1667 0.0000  plane waves:    6101
 k-point 35 :  -0.4545 0.1667 0.0000  plane waves:    6101
 k-point 36 :  -0.3636 0.1667 0.0000  plane waves:    6087
 k-point 37 :  -0.2727 0.1667 0.0000  plane waves:    6075
 k-point 38 :  -0.1818 0.1667 0.0000  plane waves:    6078
 k-point 39 :  -0.0909 0.1667 0.0000  plane waves:    6093
 k-point 40 :   0.0000 0.2222 0.0000  plane waves:    6071
 k-point 41 :   0.0909 0.2222 0.0000  plane waves:    6088
 k-point 42 :   0.1818 0.2222 0.0000  plane waves:    6066
 k-point 43 :   0.2727 0.2222 0.0000  plane waves:    6090
 k-point 44 :   0.3636 0.2222 0.0000  plane waves:    6081
 k-point 45 :   0.4545 0.2222 0.0000  plane waves:    6076
 k-point 46 :  -0.4545 0.2222 0.0000  plane waves:    6076
 k-point 47 :  -0.3636 0.2222 0.0000  plane waves:    6081
 k-point 48 :  -0.2727 0.2222 0.0000  plane waves:    6090
 k-point 49 :  -0.1818 0.2222 0.0000  plane waves:    6066
 k-point 50 :  -0.0909 0.2222 0.0000  plane waves:    6088
 k-point 51 :   0.0000 0.2778 0.0000  plane waves:    6087
 k-point 52 :   0.0909 0.2778 0.0000  plane waves:    6083
 k-point 53 :   0.1818 0.2778 0.0000  plane waves:    6069
 k-point 54 :   0.2727 0.2778 0.0000  plane waves:    6054
 k-point 55 :   0.3636 0.2778 0.0000  plane waves:    6077
 k-point 56 :   0.4545 0.2778 0.0000  plane waves:    6054
 k-point 57 :  -0.4545 0.2778 0.0000  plane waves:    6054
 k-point 58 :  -0.3636 0.2778 0.0000  plane waves:    6077
 k-point 59 :  -0.2727 0.2778 0.0000  plane waves:    6054
 k-point 60 :  -0.1818 0.2778 0.0000  plane waves:    6069
 k-point 61 :  -0.0909 0.2778 0.0000  plane waves:    6083
 k-point 62 :   0.0000 0.3333 0.0000  plane waves:    6077
 k-point 63 :   0.0909 0.3333 0.0000  plane waves:    6075
 k-point 64 :   0.1818 0.3333 0.0000  plane waves:    6055
 k-point 65 :   0.2727 0.3333 0.0000  plane waves:    6027
 k-point 66 :   0.3636 0.3333 0.0000  plane waves:    6034
 k-point 67 :   0.4545 0.3333 0.0000  plane waves:    6039
 k-point 68 :  -0.4545 0.3333 0.0000  plane waves:    6039
 k-point 69 :  -0.3636 0.3333 0.0000  plane waves:    6034
 k-point 70 :  -0.2727 0.3333 0.0000  plane waves:    6027
 k-point 71 :  -0.1818 0.3333 0.0000  plane waves:    6055
 k-point 72 :  -0.0909 0.3333 0.0000  plane waves:    6075
 k-point 73 :   0.0000 0.3889 0.0000  plane waves:    6051
 k-point 74 :   0.0909 0.3889 0.0000  plane waves:    6057
 k-point 75 :   0.1818 0.3889 0.0000  plane waves:    6043
 k-point 76 :   0.2727 0.3889 0.0000  plane waves:    6024
 k-point 77 :   0.3636 0.3889 0.0000  plane waves:    6027
 k-point 78 :   0.4545 0.3889 0.0000  plane waves:    6032
 k-point 79 :  -0.4545 0.3889 0.0000  plane waves:    6032
 k-point 80 :  -0.3636 0.3889 0.0000  plane waves:    6027
 k-point 81 :  -0.2727 0.3889 0.0000  plane waves:    6024
 k-point 82 :  -0.1818 0.3889 0.0000  plane waves:    6043
 k-point 83 :  -0.0909 0.3889 0.0000  plane waves:    6057
 k-point 84 :   0.0000 0.4444 0.0000  plane waves:    6030
 k-point 85 :   0.0909 0.4444 0.0000  plane waves:    6030
 k-point 86 :   0.1818 0.4444 0.0000  plane waves:    6023
 k-point 87 :   0.2727 0.4444 0.0000  plane waves:    6012
 k-point 88 :   0.3636 0.4444 0.0000  plane waves:    6021
 k-point 89 :   0.4545 0.4444 0.0000  plane waves:    6020
 k-point 90 :  -0.4545 0.4444 0.0000  plane waves:    6020
 k-point 91 :  -0.3636 0.4444 0.0000  plane waves:    6021
 k-point 92 :  -0.2727 0.4444 0.0000  plane waves:    6012
 k-point 93 :  -0.1818 0.4444 0.0000  plane waves:    6023
 k-point 94 :  -0.0909 0.4444 0.0000  plane waves:    6030
 k-point 95 :   0.0000 0.5000 0.0000  plane waves:    6054
 k-point 96 :   0.0909 0.5000 0.0000  plane waves:    6044
 k-point 97 :   0.1818 0.5000 0.0000  plane waves:    6032
 k-point 98 :   0.2727 0.5000 0.0000  plane waves:    6016
 k-point 99 :   0.3636 0.5000 0.0000  plane waves:    6024
 k-point ** :   0.4545 0.5000 0.0000  plane waves:    6002

 maximum and minimum number of plane-waves per node :      1551     1487

 maximum number of plane-waves:      6140
 maximum index in each direction: 
   IXMAX=    8   IYMAX=    4   IZMAX=   40
   IXMIN=   -8   IYMIN=   -5   IZMIN=  -40


 parallel 3D FFT for wavefunctions:
    minimum data exchange during FFTs selected (reduces bandwidth)
 parallel 3D FFT for charge:
    minimum data exchange during FFTs selected (reduces bandwidth)


 total amount of memory used by VASP MPI-rank0    63752. kBytes
=======================================================================

   base      :      30000. kBytes
   nonl-proj :      22315. kBytes
   fftplans  :        578. kBytes
   grid      :        768. kBytes
   one-center:         31. kBytes
   wavefun   :      10060. kBytes
 
     INWAV:  cpu time    0.0000: real time    0.0000
 Broyden mixing: mesh for mixing (old mesh)
   NGX = 15   NGY =  9   NGZ = 81
  (NGX  = 48   NGY  = 28   NGZ  =252)
  gives a total of  10935 points

 initial charge density was supplied:
 charge density of overlapping atoms calculated
 number of electron      80.0000000 magnetization 
 keeping initial charge density in first step


--------------------------------------------------------------------------------------------------------


 Maximum index for augmentation-charges          457 (set IRDMAX)


--------------------------------------------------------------------------------------------------------


 First call to EWALD:  gamma=   0.255
 Maximum number of real-space cells 4x 6x 1
 Maximum number of reciprocal cells 2x 1x 9

    FEWALD:  cpu time    0.0015: real time    0.0031


--------------------------------------- Iteration      1(   1)  ---------------------------------------


    POTLOK:  cpu time    0.0083: real time    0.0087
    SETDIJ:  cpu time    0.0028: real time    0.0029
     EDDAV:  cpu time    6.5320: real time    6.5344
       DOS:  cpu time    0.0019: real time    0.0020
    --------------------------------------------
      LOOP:  cpu time    6.5451: real time    6.5479

 eigenvalue-minimisations  :  9612
 total energy-change (2. order) : 0.4788257E+03  (-0.3106959E+04)
 number of electron      80.0000000 magnetization 
 augmentation part       80.0000000 magnetization 

 DIPCOR: dipole corrections for dipol
 direction  3 min pos   169,
 dipolmoment           0.000000      0.000000      0.000034 electrons x Angstroem
 Tr[quadrupol]      -249.540162

 energy correction for charged system         0.000000 eV
 dipol+quadrupol energy correction           -0.000000 eV
 added-field ion interaction          0.001006 eV  (added to PSCEN)


 Free energy of the ion-electron system (eV)
  ---------------------------------------------------
  alpha Z        PSCENC =       182.17618278
  Ewald energy   TEWEN  =     30374.26118184
  -Hartree energ DENC   =    -36523.81183926
  -exchange      EXHF   =         0.00000000
  -V(xc)+E(xc)   XCENC  =        27.18732378
  PAW double counting   =      5568.98828343    -5342.72235985
  entropy T*S    EENTRO =         0.00164596
  eigenvalues    EBANDS =       359.84965053
  atomic energy  EATOM  =      5832.89561447
  Solvation  Ediel_sol  =         0.00000000
  ---------------------------------------------------
  free energy    TOTEN  =       478.82568367 eV

  energy without entropy =      478.82403771  energy(sigma->0) =      478.82513501


--------------------------------------------------------------------------------------------------------




--------------------------------------- Iteration      1(   2)  ---------------------------------------


     EDDAV:  cpu time    8.8448: real time    8.8473
       DOS:  cpu time    0.0022: real time    0.0022
    --------------------------------------------
      LOOP:  cpu time    8.8470: real time    8.8495

 eigenvalue-minimisations  : 12768
 total energy-change (2. order) :-0.5015645E+03  (-0.4793503E+03)
 number of electron      80.0000000 magnetization 
 augmentation part       80.0000000 magnetization 

 DIPCOR: dipole corrections for dipol
 direction  3 min pos   169,
 dipolmoment           0.000000      0.000000      0.000034 electrons x Angstroem
 Tr[quadrupol]      -249.540162

 energy correction for charged system         0.000000 eV
 dipol+quadrupol energy correction           -0.000000 eV
 added-field ion interaction          0.001006 eV  (added to PSCEN)


 Free energy of the ion-electron system (eV)
  ---------------------------------------------------
  alpha Z        PSCENC =       182.17618278
  Ewald energy   TEWEN  =     30374.26118184
  -Hartree energ DENC   =    -36523.81183926
  -exchange      EXHF   =         0.00000000
  -V(xc)+E(xc)   XCENC  =        27.18732378
  PAW double counting   =      5568.98828343    -5342.72235985
  entropy T*S    EENTRO =        -0.00207327
  eigenvalues    EBANDS =      -141.71109098
  atomic energy  EATOM  =      5832.89561447
  Solvation  Ediel_sol  =         0.00000000
  ---------------------------------------------------
  free energy    TOTEN  =       -22.73877706 eV

  energy without entropy =      -22.73670380  energy(sigma->0) =      -22.73808597


--------------------------------------------------------------------------------------------------------




--------------------------------------- Iteration      1(   3)  ---------------------------------------


     EDDAV:  cpu time    8.3150: real time    8.3179
       DOS:  cpu time    0.0023: real time    0.0022
    --------------------------------------------
      LOOP:  cpu time    8.3172: real time    8.3201

 eigenvalue-minimisations  : 12072
 total energy-change (2. order) :-0.2603582E+02  (-0.2495264E+02)
 number of electron      80.0000000 magnetization 
 augmentation part       80.0000000 magnetization 

 DIPCOR: dipole corrections for dipol
 direction  3 min pos   169,
 dipolmoment           0.000000      0.000000      0.000034 electrons x Angstroem
 Tr[quadrupol]      -249.540162

 energy correction for charged system         0.000000 eV
 dipol+quadrupol energy correction           -0.000000 eV
 added-field ion interaction          0.001006 eV  (added to PSCEN)


 Free energy of the ion-electron system (eV)
  ---------------------------------------------------
  alpha Z        PSCENC =       182.17618278
  Ewald energy   TEWEN  =     30374.26118184
  -Hartree energ DENC   =    -36523.81183926
  -exchange      EXHF   =         0.00000000
  -V(xc)+E(xc)   XCENC  =        27.18732378
  PAW double counting   =      5568.98828343    -5342.72235985
  entropy T*S    EENTRO =        -0.00873936
  eigenvalues    EBANDS =      -167.74024319
  atomic energy  EATOM  =      5832.89561447
  Solvation  Ediel_sol  =         0.00000000
  ---------------------------------------------------
  free energy    TOTEN  =       -48.77459537 eV

  energy without entropy =      -48.76585601  energy(sigma->0) =      -48.77168225


--------------------------------------------------------------------------------------------------------




--------------------------------------- Iteration      1(   4)  ---------------------------------------


     EDDAV:  cpu time    8.2350: real time    8.2383
       DOS:  cpu time    0.0024: real time    0.0024
    --------------------------------------------
      LOOP:  cpu time    8.2374: real time    8.2407

 eigenvalue-minimisations  : 11988
 total energy-change (2. order) :-0.6976528E+00  (-0.6912462E+00)
 number of electron      80.0000000 magnetization 
 augmentation part       80.0000000 magnetization 

 DIPCOR: dipole corrections for dipol
 direction  3 min pos   169,
 dipolmoment           0.000000      0.000000      0.000034 electrons x Angstroem
 Tr[quadrupol]      -249.540162

 energy correction for charged system         0.000000 eV
 dipol+quadrupol energy correction           -0.000000 eV
 added-field ion interaction          0.001006 eV  (added to PSCEN)


 Free energy of the ion-electron system (eV)
  ---------------------------------------------------
  alpha Z        PSCENC =       182.17618278
  Ewald energy   TEWEN  =     30374.26118184
  -Hartree energ DENC   =    -36523.81183926
  -exchange      EXHF   =         0.00000000
  -V(xc)+E(xc)   XCENC  =        27.18732378
  PAW double counting   =      5568.98828343    -5342.72235985
  entropy T*S    EENTRO =        -0.00868005
  eigenvalues    EBANDS =      -168.43795535
  atomic energy  EATOM  =      5832.89561447
  Solvation  Ediel_sol  =         0.00000000
  ---------------------------------------------------
  free energy    TOTEN  =       -49.47224822 eV

  energy without entropy =      -49.46356817  energy(sigma->0) =      -49.46935487


--------------------------------------------------------------------------------------------------------




--------------------------------------- Iteration      1(   5)  ---------------------------------------


     EDDAV:  cpu time    9.1888: real time    9.1920
       DOS:  cpu time    0.0024: real time    0.0024
    CHARGE:  cpu time    0.0665: real time    0.0666
    MIXING:  cpu time    0.0012: real time    0.0014
    --------------------------------------------
      LOOP:  cpu time    9.2588: real time    9.2623

 eigenvalue-minimisations  : 13224
 total energy-change (2. order) :-0.2435956E-01  (-0.2427265E-01)
 number of electron      80.0000115 magnetization 
 augmentation part       23.2901375 magnetization 

 DIPCOR: dipole corrections for dipol
 direction  3 min pos   169,
 dipolmoment           0.000000      0.000000      0.000034 electrons x Angstroem
 Tr[quadrupol]      -249.540162

 energy correction for charged system         0.000000 eV
 dipol+quadrupol energy correction           -0.000000 eV
 added-field ion interaction          0.001006 eV  (added to PSCEN)


 Broyden mixing:
  rms(total) = 0.29291E+01    rms(broyden)= 0.29290E+01
  rms(prec ) = 0.29610E+01
  weight for this iteration     100.00

 Free energy of the ion-electron system (eV)
  ---------------------------------------------------
  alpha Z        PSCENC =       182.17618278
  Ewald energy   TEWEN  =     30374.26118184
  -Hartree energ DENC   =    -36523.81183926
  -exchange      EXHF   =         0.00000000
  -V(xc)+E(xc)   XCENC  =        27.18732378
  PAW double counting   =      5568.98828343    -5342.72235985
  entropy T*S    EENTRO =        -0.00876664
  eigenvalues    EBANDS =      -168.46222832
  atomic energy  EATOM  =      5832.89561447
  Solvation  Ediel_sol  =         0.00000000
  ---------------------------------------------------
  free energy    TOTEN  =       -49.49660778 eV

  energy without entropy =      -49.48784114  energy(sigma->0) =      -49.49368557


--------------------------------------------------------------------------------------------------------




--------------------------------------- Iteration      1(   6)  ---------------------------------------


    POTLOK:  cpu time    0.0054: real time    0.0064
    SETDIJ:  cpu time    0.0020: real time    0.0020
    EDDIAG:  cpu time    0.7837: real time    0.7839
  RMM-DIIS:  cpu time    1.6103: real time    1.6105
    ORTHCH:  cpu time    0.1767: real time    0.1767
       DOS:  cpu time    0.0023: real time    0.0023
    CHARGE:  cpu time    0.0683: real time    0.0684
    MIXING:  cpu time    0.0007: real time    0.0009
    --------------------------------------------
      LOOP:  cpu time    2.6493: real time    2.6512

 eigenvalue-minimisations  :  9665
 total energy-change (2. order) : 0.1945794E+01  (-0.8025695E+00)
 number of electron      80.0000118 magnetization 
 augmentation part       24.5533469 magnetization 

 DIPCOR: dipole corrections for dipol
 direction  3 min pos   155,
 dipolmoment           0.000000      0.000000     -0.010080 electrons x Angstroem
 Tr[quadrupol]      -248.435282

 energy correction for charged system         0.000000 eV
 dipol+quadrupol energy correction           -0.000028 eV
 added-field ion interaction          0.306293 eV  (added to PSCEN)


 Broyden mixing:
  rms(total) = 0.20422E+01    rms(broyden)= 0.20421E+01
  rms(prec ) = 0.21302E+01
  weight for this iteration     100.00

 eigenvalues of (default mixing * dielectric matrix)
  average eigenvalue GAMMA=   1.4207
  1.4207

 Free energy of the ion-electron system (eV)
  ---------------------------------------------------
  alpha Z        PSCENC =       182.48144220
  Ewald energy   TEWEN  =     30374.26118184
  -Hartree energ DENC   =    -36430.60980344
  -exchange      EXHF   =         0.00000000
  -V(xc)+E(xc)   XCENC  =        25.10243822
  PAW double counting   =      6142.17038834    -5927.63183512
  entropy T*S    EENTRO =        -0.00315426
  eigenvalues    EBANDS =      -246.21708554
  atomic energy  EATOM  =      5832.89561447
  Solvation  Ediel_sol  =         0.00000000
  ---------------------------------------------------
  free energy    TOTEN  =       -47.55081330 eV

  energy without entropy =      -47.54765904  energy(sigma->0) =      -47.54976188


--------------------------------------------------------------------------------------------------------




--------------------------------------- Iteration      1(   7)  ---------------------------------------


    POTLOK:  cpu time    0.0044: real time    0.0044
    SETDIJ:  cpu time    0.0020: real time    0.0020
    EDDIAG:  cpu time    0.7712: real time    0.7712
  RMM-DIIS:  cpu time    1.5796: real time    1.5799
    ORTHCH:  cpu time    0.1797: real time    0.1798
       DOS:  cpu time    0.0023: real time    0.0023
    CHARGE:  cpu time    0.0750: real time    0.0750
    MIXING:  cpu time    0.0004: real time    0.0004
    --------------------------------------------
      LOOP:  cpu time    2.6146: real time    2.6150

 eigenvalue-minimisations  :  9703
 total energy-change (2. order) :-0.1182851E+02  (-0.2094068E+01)
 number of electron      80.0000133 magnetization 
 augmentation part       24.1939730 magnetization 

 DIPCOR: dipole corrections for dipol
 direction  3 min pos   158,
 dipolmoment           0.000000      0.000000      0.120244 electrons x Angstroem
 Tr[quadrupol]      -251.271698

 energy correction for charged system         0.000000 eV
 dipol+quadrupol energy correction           -0.003917 eV
 added-field ion interaction         -2.102293 eV  (added to PSCEN)


 Broyden mixing:
  rms(total) = 0.28869E+01    rms(broyden)= 0.28868E+01
  rms(prec ) = 0.33909E+01
  weight for this iteration     100.00

 eigenvalues of (default mixing * dielectric matrix)
  average eigenvalue GAMMA=   1.2150
  2.1644  0.2656

 Free energy of the ion-electron system (eV)
  ---------------------------------------------------
  alpha Z        PSCENC =       180.06896734
  Ewald energy   TEWEN  =     30374.26118184
  -Hartree energ DENC   =    -36503.75762474
  -exchange      EXHF   =         0.00000000
  -V(xc)+E(xc)   XCENC  =        24.39490051
  PAW double counting   =      6599.33548383    -6390.22224424
  entropy T*S    EENTRO =        -0.00465719
  eigenvalues    EBANDS =      -176.35094239
  atomic energy  EATOM  =      5832.89561447
  Solvation  Ediel_sol  =         0.00000000
  ---------------------------------------------------
  free energy    TOTEN  =       -59.37932057 eV

  energy without entropy =      -59.37466338  energy(sigma->0) =      -59.37776817


--------------------------------------------------------------------------------------------------------




--------------------------------------- Iteration      1(   8)  ---------------------------------------


    POTLOK:  cpu time    0.0044: real time    0.0044
    SETDIJ:  cpu time    0.0021: real time    0.0021
    EDDIAG:  cpu time    0.7769: real time    0.7771
  RMM-DIIS:  cpu time    1.5758: real time    1.5761
    ORTHCH:  cpu time    0.1792: real time    0.1792
       DOS:  cpu time    0.0023: real time    0.0023
    CHARGE:  cpu time    0.0683: real time    0.0683
    MIXING:  cpu time    0.0004: real time    0.0004
    --------------------------------------------
      LOOP:  cpu time    2.6094: real time    2.6100

 eigenvalue-minimisations  :  9638
 total energy-change (2. order) : 0.9719150E+01  (-0.6751608E+00)
 number of electron      80.0000131 magnetization 
 augmentation part       24.9359538 magnetization 

 DIPCOR: dipole corrections for dipol
 direction  3 min pos   164,
 dipolmoment           0.000000      0.000000     -0.123841 electrons x Angstroem
 Tr[quadrupol]      -249.534012

 energy correction for charged system         0.000000 eV
 dipol+quadrupol energy correction           -0.004155 eV
 added-field ion interaction         -1.030253 eV  (added to PSCEN)


 Broyden mixing:
  rms(total) = 0.15144E+01    rms(broyden)= 0.15143E+01
  rms(prec ) = 0.20484E+01
  weight for this iteration     100.00

 eigenvalues of (default mixing * dielectric matrix)
  average eigenvalue GAMMA=   0.9358
  2.1865  0.3105  0.3105

 Free energy of the ion-electron system (eV)
  ---------------------------------------------------
  alpha Z        PSCENC =       181.14076941
  Ewald energy   TEWEN  =     30374.26118184
  -Hartree energ DENC   =    -36435.42446611
  -exchange      EXHF   =         0.00000000
  -V(xc)+E(xc)   XCENC  =        23.94509721
  PAW double counting   =      7000.77942172    -6797.15460107
  entropy T*S    EENTRO =         0.00230113
  eigenvalues    EBANDS =      -230.10548963
  atomic energy  EATOM  =      5832.89561447
  Solvation  Ediel_sol  =         0.00000000
  ---------------------------------------------------
  free energy    TOTEN  =       -49.66017104 eV

  energy without entropy =      -49.66247217  energy(sigma->0) =      -49.66093808


--------------------------------------------------------------------------------------------------------




--------------------------------------- Iteration      1(   9)  ---------------------------------------


    POTLOK:  cpu time    0.0054: real time    0.0064
    SETDIJ:  cpu time    0.0021: real time    0.0021
    EDDIAG:  cpu time    0.7772: real time    0.7774
  RMM-DIIS:  cpu time    1.5902: real time    1.5904
    ORTHCH:  cpu time    0.1764: real time    0.1764
       DOS:  cpu time    0.0023: real time    0.0023
    CHARGE:  cpu time    0.0701: real time    0.0701
    MIXING:  cpu time    0.0004: real time    0.0004
    --------------------------------------------
      LOOP:  cpu time    2.6241: real time    2.6255

 eigenvalue-minimisations  :  9636
 total energy-change (2. order) :-0.3128134E+01  (-0.3760717E+00)
 number of electron      80.0000124 magnetization 
 augmentation part       24.8158925 magnetization 

 DIPCOR: dipole corrections for dipol
 direction  3 min pos   163,
 dipolmoment           0.000000      0.000000      0.240911 electrons x Angstroem
 Tr[quadrupol]      -249.367199

 energy correction for charged system         0.000000 eV
 dipol+quadrupol energy correction           -0.015724 eV
 added-field ion interaction          0.968151 eV  (added to PSCEN)


 Broyden mixing:
  rms(total) = 0.19187E+01    rms(broyden)= 0.19186E+01
  rms(prec ) = 0.29186E+01
  weight for this iteration     100.00

 eigenvalues of (default mixing * dielectric matrix)
  average eigenvalue GAMMA=   0.9023
  2.2502  0.9636  0.2895  0.1061

 Free energy of the ion-electron system (eV)
  ---------------------------------------------------
  alpha Z        PSCENC =       183.12760435
  Ewald energy   TEWEN  =     30374.26118184
  -Hartree energ DENC   =    -36428.07997763
  -exchange      EXHF   =         0.00000000
  -V(xc)+E(xc)   XCENC  =        23.99978858
  PAW double counting   =      7028.84301159    -6825.36182221
  entropy T*S    EENTRO =         0.00042806
  eigenvalues    EBANDS =      -242.47413362
  atomic energy  EATOM  =      5832.89561447
  Solvation  Ediel_sol  =         0.00000000
  ---------------------------------------------------
  free energy    TOTEN  =       -52.78830459 eV

  energy without entropy =      -52.78873264  energy(sigma->0) =      -52.78844727


--------------------------------------------------------------------------------------------------------




--------------------------------------- Iteration      1(  10)  ---------------------------------------


    POTLOK:  cpu time    0.0047: real time    0.0057
    SETDIJ:  cpu time    0.0020: real time    0.0020
    EDDIAG:  cpu time    0.7783: real time    0.7785
  RMM-DIIS:  cpu time    1.5893: real time    1.5897
    ORTHCH:  cpu time    0.1764: real time    0.1764
       DOS:  cpu time    0.0022: real time    0.0022
    CHARGE:  cpu time    0.0731: real time    0.0732
    MIXING:  cpu time    0.0004: real time    0.0004
    --------------------------------------------
      LOOP:  cpu time    2.6265: real time    2.6281

 eigenvalue-minimisations  :  9634
 total energy-change (2. order) : 0.3541228E+01  (-0.4554833E+00)
 number of electron      80.0000120 magnetization 
 augmentation part       24.8798055 magnetization 

 DIPCOR: dipole corrections for dipol
 direction  3 min pos   161,
 dipolmoment           0.000000      0.000000     -0.141462 electrons x Angstroem
 Tr[quadrupol]      -249.328309

 energy correction for charged system         0.000000 eV
 dipol+quadrupol energy correction           -0.005422 eV
 added-field ion interaction          0.648209 eV  (added to PSCEN)


 Broyden mixing:
  rms(total) = 0.14183E+01    rms(broyden)= 0.14181E+01
  rms(prec ) = 0.18638E+01
  weight for this iteration     100.00

 eigenvalues of (default mixing * dielectric matrix)
  average eigenvalue GAMMA=   0.8193
  2.3199  1.1946  0.2659  0.2275  0.0889

 Free energy of the ion-electron system (eV)
  ---------------------------------------------------
  alpha Z        PSCENC =       182.81796462
  Ewald energy   TEWEN  =     30374.26118184
  -Hartree energ DENC   =    -36431.22423813
  -exchange      EXHF   =         0.00000000
  -V(xc)+E(xc)   XCENC  =        24.11805833
  PAW double counting   =      7076.97798348    -6873.61170017
  entropy T*S    EENTRO =        -0.00209502
  eigenvalues    EBANDS =      -235.47984629
  atomic energy  EATOM  =      5832.89561447
  Solvation  Ediel_sol  =         0.00000000
  ---------------------------------------------------
  free energy    TOTEN  =       -49.24707688 eV

  energy without entropy =      -49.24498186  energy(sigma->0) =      -49.24637854


--------------------------------------------------------------------------------------------------------




--------------------------------------- Iteration      1(  11)  ---------------------------------------


    POTLOK:  cpu time    0.0045: real time    0.0045
    SETDIJ:  cpu time    0.0020: real time    0.0020
    EDDIAG:  cpu time    0.7701: real time    0.7703
  RMM-DIIS:  cpu time    1.5533: real time    1.5535
    ORTHCH:  cpu time    0.1779: real time    0.1782
       DOS:  cpu time    0.0023: real time    0.0023
    CHARGE:  cpu time    0.0656: real time    0.0656
    MIXING:  cpu time    0.0005: real time    0.0004
    --------------------------------------------
      LOOP:  cpu time    2.5761: real time    2.5768

 eigenvalue-minimisations  :  9601
 total energy-change (2. order) : 0.2394028E+01  (-0.5679279E-01)
 number of electron      80.0000123 magnetization 
 augmentation part       24.8706244 magnetization 

 DIPCOR: dipole corrections for dipol
 direction  3 min pos   161,
 dipolmoment           0.000000      0.000000     -0.030101 electrons x Angstroem
 Tr[quadrupol]      -249.341388

 energy correction for charged system         0.000000 eV
 dipol+quadrupol energy correction           -0.000245 eV
 added-field ion interaction          0.137927 eV  (added to PSCEN)


 Broyden mixing:
  rms(total) = 0.61076E+00    rms(broyden)= 0.61073E+00
  rms(prec ) = 0.68778E+00
  weight for this iteration     100.00

 eigenvalues of (default mixing * dielectric matrix)
  average eigenvalue GAMMA=   0.7316
  2.0942  1.1040  0.4929  0.3043  0.3043  0.0903

 Free energy of the ion-electron system (eV)
  ---------------------------------------------------
  alpha Z        PSCENC =       182.31285898
  Ewald energy   TEWEN  =     30374.26118184
  -Hartree energ DENC   =    -36434.81617551
  -exchange      EXHF   =         0.00000000
  -V(xc)+E(xc)   XCENC  =        24.17416602
  PAW double counting   =      7113.02572283    -6909.83128891
  entropy T*S    EENTRO =        -0.00935685
  eigenvalues    EBANDS =      -228.86577126
  atomic energy  EATOM  =      5832.89561447
  Solvation  Ediel_sol  =         0.00000000
  ---------------------------------------------------
  free energy    TOTEN  =       -46.85304839 eV

  energy without entropy =      -46.84369155  energy(sigma->0) =      -46.84992944


--------------------------------------------------------------------------------------------------------




--------------------------------------- Iteration      1(  12)  ---------------------------------------


    POTLOK:  cpu time    0.0064: real time    0.0081
    SETDIJ:  cpu time    0.0021: real time    0.0021
    EDDIAG:  cpu time    0.7634: real time    0.7635
  RMM-DIIS:  cpu time    1.6182: real time    1.6186
    ORTHCH:  cpu time    0.1774: real time    0.1774
       DOS:  cpu time    0.0023: real time    0.0023
    CHARGE:  cpu time    0.0655: real time    0.0655
    MIXING:  cpu time    0.0005: real time    0.0005
    --------------------------------------------
      LOOP:  cpu time    2.6358: real time    2.6379

 eigenvalue-minimisations  :  9671
 total energy-change (2. order) : 0.3032052E+00  (-0.4337403E-01)
 number of electron      80.0000121 magnetization 
 augmentation part       24.8816954 magnetization 

 DIPCOR: dipole corrections for dipol
 direction  3 min pos   163,
 dipolmoment           0.000000      0.000000     -0.028661 electrons x Angstroem
 Tr[quadrupol]      -249.111587

 energy correction for charged system         0.000000 eV
 dipol+quadrupol energy correction           -0.000223 eV
 added-field ion interaction         -0.115180 eV  (added to PSCEN)


 Broyden mixing:
  rms(total) = 0.35764E+00    rms(broyden)= 0.35760E+00
  rms(prec ) = 0.47521E+00
  weight for this iteration     100.00

 eigenvalues of (default mixing * dielectric matrix)
  average eigenvalue GAMMA=   0.7828
  2.2310  1.2012  0.7006  0.7006  0.2781  0.2781  0.0900

 Free energy of the ion-electron system (eV)
  ---------------------------------------------------
  alpha Z        PSCENC =       182.05977442
  Ewald energy   TEWEN  =     30374.26118184
  -Hartree energ DENC   =    -36429.66911776
  -exchange      EXHF   =         0.00000000
  -V(xc)+E(xc)   XCENC  =        24.25589200
  PAW double counting   =      7072.09184866    -6868.29717880
  entropy T*S    EENTRO =        -0.00869016
  eigenvalues    EBANDS =      -234.13916788
  atomic energy  EATOM  =      5832.89561447
  Solvation  Ediel_sol  =         0.00000000
  ---------------------------------------------------
  free energy    TOTEN  =       -46.54984322 eV

  energy without entropy =      -46.54115306  energy(sigma->0) =      -46.54694650


--------------------------------------------------------------------------------------------------------




--------------------------------------- Iteration      1(  13)  ---------------------------------------


    POTLOK:  cpu time    0.0045: real time    0.0045
    SETDIJ:  cpu time    0.0021: real time    0.0021
    EDDIAG:  cpu time    0.7604: real time    0.7606
  RMM-DIIS:  cpu time    1.5999: real time    1.6003
    ORTHCH:  cpu time    0.1789: real time    0.1789
       DOS:  cpu time    0.0024: real time    0.0024
    CHARGE:  cpu time    0.0667: real time    0.0667
    MIXING:  cpu time    0.0005: real time    0.0005
    --------------------------------------------
      LOOP:  cpu time    2.6154: real time    2.6160

 eigenvalue-minimisations  :  9677
 total energy-change (2. order) : 0.6654414E-01  (-0.1482994E-01)
 number of electron      80.0000122 magnetization 
 augmentation part       24.8572764 magnetization 

 DIPCOR: dipole corrections for dipol
 direction  3 min pos   164,
 dipolmoment           0.000000      0.000000      0.010602 electrons x Angstroem
 Tr[quadrupol]      -249.310552

 energy correction for charged system         0.000000 eV
 dipol+quadrupol energy correction           -0.000030 eV
 added-field ion interaction          0.088197 eV  (added to PSCEN)


 Broyden mixing:
  rms(total) = 0.28474E+00    rms(broyden)= 0.28471E+00
  rms(prec ) = 0.37953E+00
  weight for this iteration     100.00

 eigenvalues of (default mixing * dielectric matrix)
  average eigenvalue GAMMA=   0.7803
  2.1355  1.1374  0.9249  0.9249  0.4799  0.2747  0.2747  0.0900

 Free energy of the ion-electron system (eV)
  ---------------------------------------------------
  alpha Z        PSCENC =       182.26334374
  Ewald energy   TEWEN  =     30374.26118184
  -Hartree energ DENC   =    -36435.45229728
  -exchange      EXHF   =         0.00000000
  -V(xc)+E(xc)   XCENC  =        24.25121544
  PAW double counting   =      7089.41022034    -6885.74512093
  entropy T*S    EENTRO =        -0.01140020
  eigenvalues    EBANDS =      -228.35605650
  atomic energy  EATOM  =      5832.89561447
  Solvation  Ediel_sol  =         0.00000000
  ---------------------------------------------------
  free energy    TOTEN  =       -46.48329908 eV

  energy without entropy =      -46.47189888  energy(sigma->0) =      -46.47949901


--------------------------------------------------------------------------------------------------------




--------------------------------------- Iteration      1(  14)  ---------------------------------------


    POTLOK:  cpu time    0.0046: real time    0.0046
    SETDIJ:  cpu time    0.0020: real time    0.0020
    EDDIAG:  cpu time    0.7654: real time    0.7657
  RMM-DIIS:  cpu time    1.6950: real time    1.6953
    ORTHCH:  cpu time    0.1800: real time    0.1800
       DOS:  cpu time    0.0023: real time    0.0023
    CHARGE:  cpu time    0.0673: real time    0.0674
    MIXING:  cpu time    0.0005: real time    0.0005
    --------------------------------------------
      LOOP:  cpu time    2.7172: real time    2.7178

 eigenvalue-minimisations  : 10143
 total energy-change (2. order) : 0.4041921E-01  (-0.1603006E-02)
 number of electron      80.0000122 magnetization 
 augmentation part       24.8493238 magnetization 

 DIPCOR: dipole corrections for dipol
 direction  3 min pos   164,
 dipolmoment           0.000000      0.000000      0.009067 electrons x Angstroem
 Tr[quadrupol]      -249.324037

 energy correction for charged system         0.000000 eV
 dipol+quadrupol energy correction           -0.000022 eV
 added-field ion interaction          0.075430 eV  (added to PSCEN)


 Broyden mixing:
  rms(total) = 0.18658E+00    rms(broyden)= 0.18658E+00
  rms(prec ) = 0.25581E+00
  weight for this iteration     100.00

 eigenvalues of (default mixing * dielectric matrix)
  average eigenvalue GAMMA=   0.8845
  1.9268  1.6074  1.6074  0.8479  0.6645  0.6645  0.2762  0.2762  0.0900

 Free energy of the ion-electron system (eV)
  ---------------------------------------------------
  alpha Z        PSCENC =       182.25058494
  Ewald energy   TEWEN  =     30374.26118184
  -Hartree energ DENC   =    -36436.74301073
  -exchange      EXHF   =         0.00000000
  -V(xc)+E(xc)   XCENC  =        24.28333422
  PAW double counting   =      7077.65454536    -6873.76562804
  entropy T*S    EENTRO =        -0.01076762
  eigenvalues    EBANDS =      -227.26873429
  atomic energy  EATOM  =      5832.89561447
  Solvation  Ediel_sol  =         0.00000000
  ---------------------------------------------------
  free energy    TOTEN  =       -46.44287987 eV

  energy without entropy =      -46.43211225  energy(sigma->0) =      -46.43929066


--------------------------------------------------------------------------------------------------------




--------------------------------------- Iteration      1(  15)  ---------------------------------------


    POTLOK:  cpu time    0.0047: real time    0.0047
    SETDIJ:  cpu time    0.0021: real time    0.0021
    EDDIAG:  cpu time    0.7689: real time    0.7689
  RMM-DIIS:  cpu time    1.6133: real time    1.6136
    ORTHCH:  cpu time    0.1795: real time    0.1795
       DOS:  cpu time    0.0024: real time    0.0024
    CHARGE:  cpu time    0.0673: real time    0.0673
    MIXING:  cpu time    0.0006: real time    0.0006
    --------------------------------------------
      LOOP:  cpu time    2.6387: real time    2.6391

 eigenvalue-minimisations  :  9688
 total energy-change (2. order) : 0.3153871E-01  (-0.1648978E-02)
 number of electron      80.0000122 magnetization 
 augmentation part       24.8411739 magnetization 

 DIPCOR: dipole corrections for dipol
 direction  3 min pos   164,
 dipolmoment           0.000000      0.000000     -0.001667 electrons x Angstroem
 Tr[quadrupol]      -249.361605

 energy correction for charged system         0.000000 eV
 dipol+quadrupol energy correction           -0.000001 eV
 added-field ion interaction         -0.013868 eV  (added to PSCEN)


 Broyden mixing:
  rms(total) = 0.65532E-01    rms(broyden)= 0.65510E-01
  rms(prec ) = 0.76877E-01
  weight for this iteration     100.00

 eigenvalues of (default mixing * dielectric matrix)
  average eigenvalue GAMMA=   0.8400
  1.9802  1.6171  1.6171  0.8536  0.6605  0.6605  0.0900  0.2762  0.2762  0.3682

 Free energy of the ion-electron system (eV)
  ---------------------------------------------------
  alpha Z        PSCENC =       182.16130825
  Ewald energy   TEWEN  =     30374.26118184
  -Hartree energ DENC   =    -36438.70266611
  -exchange      EXHF   =         0.00000000
  -V(xc)+E(xc)   XCENC  =        24.32801173
  PAW double counting   =      7068.85466616    -6864.72494020
  entropy T*S    EENTRO =        -0.00977377
  eigenvalues    EBANDS =      -225.47474352
  atomic energy  EATOM  =      5832.89561447
  Solvation  Ediel_sol  =         0.00000000
  ---------------------------------------------------
  free energy    TOTEN  =       -46.41134116 eV

  energy without entropy =      -46.40156739  energy(sigma->0) =      -46.40808323


--------------------------------------------------------------------------------------------------------




--------------------------------------- Iteration      1(  16)  ---------------------------------------


    POTLOK:  cpu time    0.0047: real time    0.0047
    SETDIJ:  cpu time    0.0021: real time    0.0021
    EDDIAG:  cpu time    0.7736: real time    0.7738
  RMM-DIIS:  cpu time    1.6253: real time    1.6257
    ORTHCH:  cpu time    0.1808: real time    0.1808
       DOS:  cpu time    0.0025: real time    0.0025
    CHARGE:  cpu time    0.0676: real time    0.0676
    MIXING:  cpu time    0.0006: real time    0.0006
    --------------------------------------------
      LOOP:  cpu time    2.6572: real time    2.6578

 eigenvalue-minimisations  :  9817
 total energy-change (2. order) : 0.1619941E-02  (-0.2766086E-03)
 number of electron      80.0000122 magnetization 
 augmentation part       24.8405650 magnetization 

 DIPCOR: dipole corrections for dipol
 direction  3 min pos   164,
 dipolmoment           0.000000      0.000000     -0.001121 electrons x Angstroem
 Tr[quadrupol]      -249.370715

 energy correction for charged system         0.000000 eV
 dipol+quadrupol energy correction           -0.000000 eV
 added-field ion interaction         -0.009326 eV  (added to PSCEN)


 Broyden mixing:
  rms(total) = 0.49084E-01    rms(broyden)= 0.49083E-01
  rms(prec ) = 0.58694E-01
  weight for this iteration     100.00

 eigenvalues of (default mixing * dielectric matrix)
  average eigenvalue GAMMA=   0.9052
  2.3102  1.6693  1.6693  1.1164  0.7465  0.7465  0.7993  0.0900  0.2761  0.2761
  0.2572

 Free energy of the ion-electron system (eV)
  ---------------------------------------------------
  alpha Z        PSCENC =       182.16585094
  Ewald energy   TEWEN  =     30374.26118184
  -Hartree energ DENC   =    -36438.88784161
  -exchange      EXHF   =         0.00000000
  -V(xc)+E(xc)   XCENC  =        24.33133791
  PAW double counting   =      7070.02489476    -6865.89686636
  entropy T*S    EENTRO =        -0.00977122
  eigenvalues    EBANDS =      -225.29412194
  atomic energy  EATOM  =      5832.89561447
  Solvation  Ediel_sol  =         0.00000000
  ---------------------------------------------------
  free energy    TOTEN  =       -46.40972121 eV

  energy without entropy =      -46.39994999  energy(sigma->0) =      -46.40646414


--------------------------------------------------------------------------------------------------------




--------------------------------------- Iteration      1(  17)  ---------------------------------------


    POTLOK:  cpu time    0.0051: real time    0.0051
    SETDIJ:  cpu time    0.0020: real time    0.0020
    EDDIAG:  cpu time    0.7863: real time    0.7865
  RMM-DIIS:  cpu time    1.6111: real time    1.6113
    ORTHCH:  cpu time    0.1777: real time    0.1777
       DOS:  cpu time    0.0025: real time    0.0025
    CHARGE:  cpu time    0.0672: real time    0.0674
    MIXING:  cpu time    0.0007: real time    0.0007
    --------------------------------------------
      LOOP:  cpu time    2.6525: real time    2.6532

 eigenvalue-minimisations  :  9700
 total energy-change (2. order) :-0.5416229E-03  (-0.1603529E-03)
 number of electron      80.0000122 magnetization 
 augmentation part       24.8416798 magnetization 

 DIPCOR: dipole corrections for dipol
 direction  3 min pos   164,
 dipolmoment           0.000000      0.000000      0.002371 electrons x Angstroem
 Tr[quadrupol]      -249.383180

 energy correction for charged system         0.000000 eV
 dipol+quadrupol energy correction           -0.000002 eV
 added-field ion interaction          0.019725 eV  (added to PSCEN)


 Broyden mixing:
  rms(total) = 0.57002E-01    rms(broyden)= 0.56999E-01
  rms(prec ) = 0.85775E-01
  weight for this iteration     100.00

 eigenvalues of (default mixing * dielectric matrix)
  average eigenvalue GAMMA=   0.9017
  2.3779  1.7539  1.7539  1.1624  0.8281  0.8281  0.6089  0.6089  0.2761  0.2761
  0.0900  0.2559

 Free energy of the ion-electron system (eV)
  ---------------------------------------------------
  alpha Z        PSCENC =       182.19490017
  Ewald energy   TEWEN  =     30374.26118184
  -Hartree energ DENC   =    -36439.22419221
  -exchange      EXHF   =         0.00000000
  -V(xc)+E(xc)   XCENC  =        24.33754065
  PAW double counting   =      7074.23776660    -6870.13574558
  entropy T*S    EENTRO =        -0.00971841
  eigenvalues    EBANDS =      -224.96761037
  atomic energy  EATOM  =      5832.89561447
  Solvation  Ediel_sol  =         0.00000000
  ---------------------------------------------------
  free energy    TOTEN  =       -46.41026284 eV

  energy without entropy =      -46.40054443  energy(sigma->0) =      -46.40702337


--------------------------------------------------------------------------------------------------------




--------------------------------------- Iteration      1(  18)  ---------------------------------------


    POTLOK:  cpu time    0.0047: real time    0.0047
    SETDIJ:  cpu time    0.0021: real time    0.0021
    EDDIAG:  cpu time    0.7745: real time    0.7746
  RMM-DIIS:  cpu time    1.6359: real time    1.6363
    ORTHCH:  cpu time    0.1761: real time    0.1761
       DOS:  cpu time    0.0024: real time    0.0024
    CHARGE:  cpu time    0.0650: real time    0.0650
    MIXING:  cpu time    0.0007: real time    0.0007
    --------------------------------------------
      LOOP:  cpu time    2.6614: real time    2.6618

 eigenvalue-minimisations  :  9791
 total energy-change (2. order) : 0.2053860E-02  (-0.4332495E-04)
 number of electron      80.0000122 magnetization 
 augmentation part       24.8410476 magnetization 

 DIPCOR: dipole corrections for dipol
 direction  3 min pos   160,
 dipolmoment           0.000000      0.000000      0.001430 electrons x Angstroem
 Tr[quadrupol]      -249.391582

 energy correction for charged system         0.000000 eV
 dipol+quadrupol energy correction           -0.000001 eV
 added-field ion interaction         -0.012702 eV  (added to PSCEN)


 Broyden mixing:
  rms(total) = 0.38011E-01    rms(broyden)= 0.38011E-01
  rms(prec ) = 0.56300E-01
  weight for this iteration     100.00

 eigenvalues of (default mixing * dielectric matrix)
  average eigenvalue GAMMA=   0.9006
  2.4219  1.8481  1.8481  1.1559  0.9364  0.9364  0.6395  0.6395  0.0900  0.2761
  0.2761  0.3851  0.2550

 Free energy of the ion-electron system (eV)
  ---------------------------------------------------
  alpha Z        PSCENC =       182.16247449
  Ewald energy   TEWEN  =     30374.26118184
  -Hartree energ DENC   =    -36439.52296525
  -exchange      EXHF   =         0.00000000
  -V(xc)+E(xc)   XCENC  =        24.34145807
  PAW double counting   =      7074.61866737    -6870.50694922
  entropy T*S    EENTRO =        -0.00959248
  eigenvalues    EBANDS =      -224.64809826
  atomic energy  EATOM  =      5832.89561447
  Solvation  Ediel_sol  =         0.00000000
  ---------------------------------------------------
  free energy    TOTEN  =       -46.40820898 eV

  energy without entropy =      -46.39861650  energy(sigma->0) =      -46.40501148


--------------------------------------------------------------------------------------------------------




--------------------------------------- Iteration      1(  19)  ---------------------------------------


    POTLOK:  cpu time    0.0046: real time    0.0046
    SETDIJ:  cpu time    0.0020: real time    0.0020
[...]
  FORCES: max atom, RMS     0.016373    0.009337
  FORCE total and by dimension    0.026408    0.016373
  Stress total and by dimension    8.633369    7.303650
 Quasi-Newton relaxation of ions (Broydens 2nd method)
  g(Force)  = 0.673E-05   g(Stress)= 0.000E+00

 retain information from N=  1 steps
 eigenvalues of (default step * inverse Hessian matrix)
  average eigenvalue of G=  57.4795
 eigenvalue spectrum of G is 57.4795


--------------------------------------------------------------------------------------------------------


    WAVPRE:  cpu time    0.0014: real time    0.0014
    FEWALD:  cpu time    0.0002: real time    0.0002
    ORTHCH:  cpu time    0.2777: real time    0.2777
     LOOP+:  cpu time   24.8043: real time   24.8193


--------------------------------------- Iteration     10(   1)  ---------------------------------------


    POTLOK:  cpu time    0.0060: real time    0.0074
    SETDIJ:  cpu time    0.0021: real time    0.0021
     EDDAV:  cpu time    6.5724: real time    6.5741
       DOS:  cpu time    0.0023: real time    0.0023
    CHARGE:  cpu time    0.0666: real time    0.0667
    MIXING:  cpu time    0.0003: real time    0.0003
    --------------------------------------------
      LOOP:  cpu time    6.6498: real time    6.6529

 eigenvalue-minimisations  :  9600
 total energy-change (2. order) : 0.9695318E-03  (-0.1201334E+00)
 number of electron      80.0000111 magnetization 
 augmentation part       24.8355277 magnetization 

 DIPCOR: dipole corrections for dipol
 direction  3 min pos   163,
 dipolmoment           0.000000      0.000000      0.000430 electrons x Angstroem
 Tr[quadrupol]      -249.480501

 energy correction for charged system         0.000000 eV
 dipol+quadrupol energy correction           -0.000000 eV
 added-field ion interaction          0.001839 eV  (added to PSCEN)


  free energy =  -0.464077390636E+02  energy without entropy=  -0.463984440980E+02


--------------------------------------------------------------------------------------------------------




--------------------------------------- Iteration     10(   2)  ---------------------------------------


    POTLOK:  cpu time    0.0047: real time    0.0057
    SETDIJ:  cpu time    0.0020: real time    0.0020
    EDDIAG:  cpu time    0.7760: real time    0.7762
  RMM-DIIS:  cpu time    1.5793: real time    1.5795
    ORTHCH:  cpu time    0.1795: real time    0.1797
       DOS:  cpu time    0.0024: real time    0.0024
    CHARGE:  cpu time    0.0670: real time    0.0670
    MIXING:  cpu time    0.0003: real time    0.0003
    --------------------------------------------
      LOOP:  cpu time    2.6113: real time    2.6129

 eigenvalue-minimisations  :  9623
 total energy-change (2. order) :-0.7036387E-02  (-0.1518585E-02)
 number of electron      80.0000111 magnetization 
 augmentation part       24.8360333 magnetization 

 DIPCOR: dipole corrections for dipol
 direction  3 min pos   166,
 dipolmoment           0.000000      0.000000     -0.006494 electrons x Angstroem
 Tr[quadrupol]      -249.480692

 energy correction for charged system         0.000000 eV
 dipol+quadrupol energy correction           -0.000011 eV
 added-field ion interaction         -0.111549 eV  (added to PSCEN)


 eigenvalues of (default mixing * dielectric matrix)
  average eigenvalue GAMMA=   0.0617
  0.0617

  free energy =  -0.464147754507E+02  energy without entropy=  -0.464050517511E+02


--------------------------------------------------------------------------------------------------------




--------------------------------------- Iteration     10(   3)  ---------------------------------------


    POTLOK:  cpu time    0.0046: real time    0.0046
    SETDIJ:  cpu time    0.0020: real time    0.0020
    EDDIAG:  cpu time    0.7741: real time    0.7741
  RMM-DIIS:  cpu time    1.6919: real time    1.6923
    ORTHCH:  cpu time    0.1815: real time    0.1815
       DOS:  cpu time    0.0025: real time    0.0025
    CHARGE:  cpu time    0.0675: real time    0.0675
    MIXING:  cpu time    0.0003: real time    0.0003
    --------------------------------------------
      LOOP:  cpu time    2.7244: real time    2.7248

 eigenvalue-minimisations  :  9783
 total energy-change (2. order) : 0.5719291E-02  (-0.1362538E-03)
 number of electron      80.0000111 magnetization 
 augmentation part       24.8364481 magnetization 

 DIPCOR: dipole corrections for dipol
 direction  3 min pos   167,
 dipolmoment           0.000000      0.000000      0.000051 electrons x Angstroem
 Tr[quadrupol]      -249.482071

 energy correction for charged system         0.000000 eV
 dipol+quadrupol energy correction           -0.000000 eV
 added-field ion interaction          0.001105 eV  (added to PSCEN)


 eigenvalues of (default mixing * dielectric matrix)
  average eigenvalue GAMMA=   0.4311
  0.7985  0.0637

  free energy =  -0.464090561598E+02  energy without entropy=  -0.463997140247E+02


--------------------------------------------------------------------------------------------------------




--------------------------------------- Iteration     10(   4)  ---------------------------------------


    POTLOK:  cpu time    0.0050: real time    0.0053
    SETDIJ:  cpu time    0.0021: real time    0.0021
    EDDIAG:  cpu time    0.7733: real time    0.7736
  RMM-DIIS:  cpu time    1.5602: real time    1.5606
    ORTHCH:  cpu time    0.1807: real time    0.1809
       DOS:  cpu time    0.0025: real time    0.0025
    CHARGE:  cpu time    0.0677: real time    0.0677
    MIXING:  cpu time    0.0004: real time    0.0003
    --------------------------------------------
      LOOP:  cpu time    2.5919: real time    2.5929

 eigenvalue-minimisations  :  9632
 total energy-change (2. order) :-0.1198964E-03  (-0.5396374E-04)
 number of electron      80.0000111 magnetization 
 augmentation part       24.8379836 magnetization 

 DIPCOR: dipole corrections for dipol
 direction  3 min pos   168,
 dipolmoment           0.000000      0.000000     -0.000007 electrons x Angstroem
 Tr[quadrupol]      -249.469391

 energy correction for charged system         0.000000 eV
 dipol+quadrupol energy correction           -0.000000 eV
 added-field ion interaction         -0.000192 eV  (added to PSCEN)


 eigenvalues of (default mixing * dielectric matrix)
  average eigenvalue GAMMA=   0.4632
  1.1275  0.0618  0.2003

  free energy =  -0.464091760562E+02  energy without entropy=  -0.464000321466E+02


--------------------------------------------------------------------------------------------------------




--------------------------------------- Iteration     10(   5)  ---------------------------------------


    POTLOK:  cpu time    0.0048: real time    0.0048
    SETDIJ:  cpu time    0.0021: real time    0.0021
    EDDIAG:  cpu time    0.7754: real time    0.7756
  RMM-DIIS:  cpu time    1.6403: real time    1.6404
    ORTHCH:  cpu time    0.1802: real time    0.1804
       DOS:  cpu time    0.0024: real time    0.0024
    CHARGE:  cpu time    0.0676: real time    0.0676
    MIXING:  cpu time    0.0004: real time    0.0004
    --------------------------------------------
      LOOP:  cpu time    2.6730: real time    2.6736

 eigenvalue-minimisations  :  9674
 total energy-change (2. order) : 0.2584727E-03  (-0.1523819E-04)
 number of electron      80.0000111 magnetization 
 augmentation part       24.8371463 magnetization 

 DIPCOR: dipole corrections for dipol
 direction  3 min pos   168,
 dipolmoment           0.000000      0.000000     -0.000001 electrons x Angstroem
 Tr[quadrupol]      -249.475089

 energy correction for charged system         0.000000 eV
 dipol+quadrupol energy correction           -0.000000 eV
 added-field ion interaction         -0.000022 eV  (added to PSCEN)


 eigenvalues of (default mixing * dielectric matrix)
  average eigenvalue GAMMA=   0.8074
  2.1121  0.8343  0.0623  0.2209

  free energy =  -0.464089175835E+02  energy without entropy=  -0.463996339924E+02


--------------------------------------------------------------------------------------------------------




--------------------------------------- Iteration     10(   6)  ---------------------------------------


    POTLOK:  cpu time    0.0047: real time    0.0047
    SETDIJ:  cpu time    0.0021: real time    0.0021
    EDDIAG:  cpu time    0.7738: real time    0.7738
  RMM-DIIS:  cpu time    1.6453: real time    1.6456
    ORTHCH:  cpu time    0.1791: real time    0.1791
       DOS:  cpu time    0.0024: real time    0.0024
    CHARGE:  cpu time    0.0675: real time    0.0675
    MIXING:  cpu time    0.0004: real time    0.0004
    --------------------------------------------
      LOOP:  cpu time    2.6753: real time    2.6757

 eigenvalue-minimisations  :  9667
 total energy-change (2. order) :-0.1919901E-03  (-0.2453598E-04)
 number of electron      80.0000111 magnetization 
 augmentation part       24.8370777 magnetization 

 DIPCOR: dipole corrections for dipol
 direction  3 min pos   163,
 dipolmoment           0.000000      0.000000     -0.001069 electrons x Angstroem
 Tr[quadrupol]      -249.475042

 energy correction for charged system         0.000000 eV
 dipol+quadrupol energy correction           -0.000000 eV
 added-field ion interaction         -0.004573 eV  (added to PSCEN)


 eigenvalues of (default mixing * dielectric matrix)
  average eigenvalue GAMMA=   0.7930
  2.5553  0.8684  0.0623  0.2394  0.2394

  free energy =  -0.464091095736E+02  energy without entropy=  -0.463998506820E+02


--------------------------------------------------------------------------------------------------------




--------------------------------------- Iteration     10(   7)  ---------------------------------------


    POTLOK:  cpu time    0.0048: real time    0.0048
    SETDIJ:  cpu time    0.0021: real time    0.0021
    EDDIAG:  cpu time    0.7799: real time    0.7802
  RMM-DIIS:  cpu time    1.6483: real time    1.6487
    ORTHCH:  cpu time    0.1813: real time    0.1813
       DOS:  cpu time    0.0024: real time    0.0024
    CHARGE:  cpu time    0.0675: real time    0.0675
    MIXING:  cpu time    0.0004: real time    0.0004
    --------------------------------------------
      LOOP:  cpu time    2.6867: real time    2.6874

 eigenvalue-minimisations  :  9680
 total energy-change (2. order) : 0.2158806E-03  (-0.9493396E-05)
 number of electron      80.0000111 magnetization 
 augmentation part       24.8366500 magnetization 

 DIPCOR: dipole corrections for dipol
 direction  3 min pos   161,
 dipolmoment           0.000000      0.000000     -0.000220 electrons x Angstroem
 Tr[quadrupol]      -249.478205

 energy correction for charged system         0.000000 eV
 dipol+quadrupol energy correction           -0.000000 eV
 added-field ion interaction          0.000953 eV  (added to PSCEN)


 eigenvalues of (default mixing * dielectric matrix)
  average eigenvalue GAMMA=   0.8254
  2.3605  1.0186  1.0186  0.0623  0.2172  0.2755

  free energy =  -0.464088936931E+02  energy without entropy=  -0.463995956691E+02


--------------------------------------------------------------------------------------------------------




--------------------------------------- Iteration     10(   8)  ---------------------------------------


    POTLOK:  cpu time    0.0046: real time    0.0047
    SETDIJ:  cpu time    0.0021: real time    0.0021
    EDDIAG:  cpu time    0.7779: real time    0.7781
  RMM-DIIS:  cpu time    1.6143: real time    1.6145
    ORTHCH:  cpu time    0.1805: real time    0.1807
       DOS:  cpu time    0.0024: real time    0.0024
    CHARGE:  cpu time    0.0669: real time    0.0669
    MIXING:  cpu time    0.0005: real time    0.0005
    --------------------------------------------
      LOOP:  cpu time    2.6492: real time    2.6498

 eigenvalue-minimisations  :  9732
 total energy-change (2. order) : 0.3447096E-04  (-0.1752935E-05)
 number of electron      80.0000111 magnetization 
 augmentation part       24.8367827 magnetization 

 DIPCOR: dipole corrections for dipol
 direction  3 min pos   160,
 dipolmoment           0.000000      0.000000      0.000273 electrons x Angstroem
 Tr[quadrupol]      -249.478556

 energy correction for charged system         0.000000 eV
 dipol+quadrupol energy correction           -0.000000 eV
 added-field ion interaction         -0.002355 eV  (added to PSCEN)


 eigenvalues of (default mixing * dielectric matrix)
  average eigenvalue GAMMA=   0.8909
  2.3939  1.2471  1.2471  0.7932  0.0623  0.2173  0.2754

  free energy =  -0.464088592221E+02  energy without entropy=  -0.463995804065E+02


--------------------------------------------------------------------------------------------------------




--------------------------------------- Iteration     10(   9)  ---------------------------------------


    POTLOK:  cpu time    0.0046: real time    0.0046
    SETDIJ:  cpu time    0.0021: real time    0.0021
    EDDIAG:  cpu time    0.7783: real time    0.7783
  RMM-DIIS:  cpu time    1.1340: real time    1.1344
    ORTHCH:  cpu time    0.1808: real time    0.1809
       DOS:  cpu time    0.0024: real time    0.0024
    CHARGE:  cpu time    0.0669: real time    0.0669
    MIXING:  cpu time    0.0005: real time    0.0005
    --------------------------------------------
      LOOP:  cpu time    2.1697: real time    2.1701

 eigenvalue-minimisations  :  5854
 total energy-change (2. order) :-0.1092554E-05  (-0.2881608E-06)
 number of electron      80.0000111 magnetization 
 augmentation part       24.8368106 magnetization 

 DIPCOR: dipole corrections for dipol
 direction  3 min pos   159,
 dipolmoment           0.000000      0.000000      0.000238 electrons x Angstroem
 Tr[quadrupol]      -249.479042

 energy correction for charged system         0.000000 eV
 dipol+quadrupol energy correction           -0.000000 eV
 added-field ion interaction         -0.003082 eV  (added to PSCEN)


 eigenvalues of (default mixing * dielectric matrix)
  average eigenvalue GAMMA=   0.8931
  2.3944  1.4052  1.4052  0.7987  0.0623  0.5862  0.2172  0.2753

  free energy =  -0.464088603147E+02  energy without entropy=  -0.463995792323E+02


--------------------------------------------------------------------------------------------------------




--------------------------------------- Iteration     10(  10)  ---------------------------------------


    POTLOK:  cpu time    0.0047: real time    0.0047
    SETDIJ:  cpu time    0.0021: real time    0.0021
    EDDIAG:  cpu time    0.7750: real time    0.7752
  RMM-DIIS:  cpu time    1.0571: real time    1.0573
    ORTHCH:  cpu time    0.1806: real time    0.1807
       DOS:  cpu time    0.0024: real time    0.0024
    --------------------------------------------
      LOOP:  cpu time    2.0220: real time    2.0223

 eigenvalue-minimisations  :  5195
 total energy-change (2. order) :-0.1571216E-06  (-0.1082456E-06)
 number of electron      80.0000111 magnetization 
 augmentation part       24.8368106 magnetization 

 DIPCOR: dipole corrections for dipol
 direction  3 min pos   161,
 dipolmoment           0.000000      0.000000      0.000238 electrons x Angstroem
 Tr[quadrupol]      -249.479106

 energy correction for charged system         0.000000 eV
 dipol+quadrupol energy correction           -0.000000 eV
 added-field ion interaction         -0.001031 eV  (added to PSCEN)


  free energy =  -0.464088604718E+02  energy without entropy=  -0.463995802667E+02


--------------------------------------------------------------------------------------------------------




------------------------ aborting loop because EDIFF is reached ----------------------------------------


    CHARGE:  cpu time    0.0676: real time    0.0676
    FORLOC:  cpu time    0.0004: real time    0.0004
    FORNL :  cpu time    0.6438: real time    0.6440
    STRESS:  cpu time    1.2622: real time    1.2624
    FORCOR:  cpu time    0.0045: real time    0.0045
    FORHAR:  cpu time    0.0015: real time    0.0015
    MIXING:  cpu time    0.0005: real time    0.0005
    OFIELD:  cpu time    0.0000: real time    0.0000

  FORCE on cell =-STRESS in cart. coord.  units (eV):
  Direction    XX          YY          ZZ          XY          YZ          ZX
  --------------------------------------------------------------------------------------
  Alpha Z   182.17518   182.17518   182.17518
  Ewald   34903.99897 34864.78264-39329.90479     0.00000     0.00000    -8.03008
  Hartree 36166.42384 36154.97223-35815.26493     0.00000     0.00000    -2.56101
  E(xc)    -353.90140  -353.99969  -356.53344    -0.00000    -0.00000    -0.03976
  Local  -72506.35099-72460.61306 73667.54830    -0.00000    -0.00000     9.37607
  n-local    42.39652    36.51122    28.92637    -0.00000     0.00000    -0.34571
  augment   413.86679   417.12352   432.43056     0.00000    -0.00000     0.49630
  Kinetic  1146.93863  1151.91088  1190.86661     0.00000    -0.00000     1.08664
  Fock        0.00000     0.00000     0.00000     0.00000     0.00000     0.00000
  -------------------------------------------------------------------------------------
  Total      -4.45247    -7.13708     0.24387     0.00000    -0.00000    -0.01755
  in kB     -21.36146   -34.24133     1.17003     0.00000    -0.00000    -0.08421
  external pressure =      -18.14 kB  Pullay stress =        0.00 kB



--------------------------------------------------------------------------------------------------------



  FREE ENERGIE OF THE ION-ELECTRON SYSTEM (eV)
  ---------------------------------------------------
  free  energy   TOTEN  =       -46.40886047 eV

  energy  without entropy=      -46.39958027  energy(sigma->0) =      -46.40576707
 
 d Force = 0.1377176E-03[-0.109E-03, 0.385E-03]  d Energy = 0.1522935E-03-0.146E-04
 d Force =-0.5471806E+02[-0.547E+02,-0.547E+02]  d Ewald  =-0.5471807E+02 0.767E-05


--------------------------------------------------------------------------------------------------------


    POTLOK:  cpu time    0.0075: real time    0.0081


--------------------------------------------------------------------------------------------------------


 stress matrix after NEB project (eV)
     -4.45247      0.00000     -0.01755
      0.00000     -7.13708      0.00000
     -0.01755     -0.00000      0.24387
  FORCES: max atom, RMS     0.009512    0.005774
  FORCE total and by dimension    0.016333    0.009512
  Stress total and by dimension    8.415612    7.137083
 Quasi-Newton relaxation of ions (Broydens 2nd method)
  g(Force)  = 0.257E-05   g(Stress)= 0.000E+00

 retain information from N=  1 steps
 eigenvalues of (default step * inverse Hessian matrix)
  average eigenvalue of G=  38.1683
 eigenvalue spectrum of G is 38.1683


--------------------------------------------------------------------------------------------------------


  
 reached required accuracy - stopping structural energy minimisation
     LOOP+:  cpu time   31.4457: real time   31.4559
    4ORBIT:  cpu time    0.0000: real time    0.0000

 total amount of memory used by VASP MPI-rank0    63752. kBytes
=======================================================================

   base      :      30000. kBytes
   nonl-proj :      22315. kBytes
   fftplans  :        578. kBytes
   grid      :        768. kBytes
   one-center:         31. kBytes
   wavefun   :      10060. kBytes
 
  
  
 General timing and accounting informations for this job:
 ========================================================
  
                  Total CPU time used (sec):      306.605
                            User time (sec):      235.976
                          System time (sec):       70.629
                         Elapsed time (sec):      306.731
  
                   Maximum memory used (kb):      157396.
                   Average memory used (kb):           0.
  
                          Minor page faults:       116844
                          Major page faults:            0
                 Voluntary context switches:     22449528
