 vasp.5.4.4.18Apr17-6-g9f103f2a35 (build Nov 06 2023 00:46:14) complex          
  
 executed on             LinuxIFC date 2025.07.24  17:43:33
 running on   64 total cores
 distrk:  each k-point on   64 cores,    1 groups
 distr:  one band on NCORES_PER_BAND=   8 cores,    8 groups


--------------------------------------------------------------------------------------------------------


 INCAR:
 POTCAR:    PAW_PBE Pt 04Feb2005                  
 POTCAR:    PAW_PBE O 08Apr2002                   
 POTCAR:    PAW_PBE Pt 04Feb2005                  
   VRHFIN =Pt: s1d9                                                             
   LEXCH  = PE                                                                  
   EATOM  =   729.1176 eV,   53.5886 Ry                                         
                                                                                
   TITEL  = PAW_PBE Pt 04Feb2005                                                
   LULTRA =        F    use ultrasoft PP ?                                      
   IUNSCR =        1    unscreen: 0-lin 1-nonlin 2-no                           
   RPACOR =    2.330    partial core radius                                     
   POMASS =  195.080; ZVAL   =   10.000    mass and valenz                      
   RCORE  =    2.600    outmost cutoff radius                                   
   RWIGS  =    2.750; RWIGS  =    1.455    wigner-seitz radius (au A)           
   ENMAX  =  230.283; ENMIN  =  172.712 eV                                      
   ICORE  =        3    local potential                                         
   LCOR   =        T    correct aug charges                                     
   LPAW   =        T    paw PP                                                  
   EAUG   =  358.966                                                            
   DEXC   =    0.000                                                            
   RMAX   =    2.658    core radius for proj-oper                               
   RAUG   =    1.300    factor for augmentation sphere                          
   RDEP   =    2.761    radius for radial grids                                 
   RDEPT  =    2.203    core radius for aug-charge                              
                                                                                
   Atomic configuration                                                         
   16 entries                                                                   
     n  l   j            E        occ.                                          
     1  0  0.50    -78401.1885   2.0000                                         
     2  0  0.50    -13770.7750   2.0000                                         
     2  1  1.50    -11931.0468   6.0000                                         
     3  0  0.50     -3234.7234   2.0000                                         
     3  1  1.50     -2699.2216   6.0000                                         
     3  2  2.50     -2119.5714  10.0000                                         
     4  0  0.50      -695.1528   2.0000                                         
     4  1  1.50      -519.6034   6.0000                                         
     4  2  2.50      -306.6786  10.0000                                         
     4  3  3.50       -70.1041  14.0000                                         
     5  0  0.50      -101.7747   2.0000                                         
     5  1  1.50       -55.9873   6.0000                                         
     5  2  2.50        -6.1423   9.0000                                         
     6  0  0.50        -5.6573   1.0000                                         
     6  1  1.50        -6.8029   0.0000                                         
     5  3  2.50        -1.3606   0.0000                                         
   Description                                                                  
     l       E           TYP  RCUT    TYP  RCUT                                 
     2     -6.1423404     23  2.500                                             
     2     -7.5029230     23  2.500                                             
     0     -5.6573207     23  2.500                                             
     0      0.7416693     23  2.500                                             
     1     -2.7211652     23  2.600                                             
     1     20.4087390     23  2.600                                             
     3     -1.3605826     23  2.500                                             
  local pseudopotential read in
  partial core-charges read in
  partial kinetic energy density read in
  atomic valenz-charges read in
  non local Contribution for L=           2  read in
    real space projection operators read in
  non local Contribution for L=           2  read in
    real space projection operators read in
  non local Contribution for L=           0  read in
    real space projection operators read in
  non local Contribution for L=           0  read in
    real space projection operators read in
  non local Contribution for L=           1  read in
    real space projection operators read in
  non local Contribution for L=           1  read in
    real space projection operators read in
    PAW grid and wavefunctions read in
 
   number of l-projection  operators is LMAX  =           6
   number of lm-projection operators is LMMAX =          18
 
 POTCAR:    PAW_PBE O 08Apr2002                   
   VRHFIN =O: s2p4                                                              
   LEXCH  = PE                                                                  
   EATOM  =   432.3788 eV,   31.7789 Ry                                         
                                                                                
   TITEL  = PAW_PBE O 08Apr2002                                                 
   LULTRA =        F    use ultrasoft PP ?                                      
   IUNSCR =        1    unscreen: 0-lin 1-nonlin 2-no                           
   RPACOR =    1.200    partial core radius                                     
   POMASS =   16.000; ZVAL   =    6.000    mass and valenz                      
   RCORE  =    1.520    outmost cutoff radius                                   
   RWIGS  =    1.550; RWIGS  =    0.820    wigner-seitz radius (au A)           
   ENMAX  =  400.000; ENMIN  =  300.000 eV                                      
   ICORE  =        2    local potential                                         
   LCOR   =        T    correct aug charges                                     
   LPAW   =        T    paw PP                                                  
   EAUG   =  605.392                                                            
   DEXC   =    0.000                                                            
   RMAX   =    1.553    core radius for proj-oper                               
   RAUG   =    1.300    factor for augmentation sphere                          
   RDEP   =    1.550    radius for radial grids                                 
   RDEPT  =    1.329    core radius for aug-charge                              
                                                                                
   Atomic configuration                                                         
    4 entries                                                                   
     n  l   j            E        occ.                                          
     1  0  0.50      -514.6923   2.0000                                         
     2  0  0.50       -23.9615   2.0000                                         
     2  1  0.50        -9.0305   4.0000                                         
     3  2  1.50        -9.5241   0.0000                                         
   Description                                                                  
     l       E           TYP  RCUT    TYP  RCUT                                 
     0    -23.9615318     23  1.200                                             
     0     -9.5240782     23  1.200                                             
     1     -9.0304911     23  1.520                                             
     1      8.1634956     23  1.520                                             
     2     -9.5240782      7  1.500                                             
  local pseudopotential read in
  partial core-charges read in
  partial kinetic energy density read in
  kinetic energy density of atom read in
  atomic valenz-charges read in
  non local Contribution for L=           0  read in
    real space projection operators read in
  non local Contribution for L=           0  read in
    real space projection operators read in
  non local Contribution for L=           1  read in
    real space projection operators read in
  non local Contribution for L=           1  read in
    real space projection operators read in
    PAW grid and wavefunctions read in
 
   number of l-projection  operators is LMAX  =           4
   number of lm-projection operators is LMMAX =           8
 
 Optimization of the real space projectors (new method)

 maximal supplied QI-value         = 14.36
 optimisation between [QCUT,QGAM] = [ 10.77, 21.69] = [ 32.49,131.70] Ry 
 Optimized for a Real-space Cutoff    1.46 Angstroem

   l    n(q)    QCUT    max X(q) W(low)/X(q) W(high)/X(q)  e(spline) 
   2      9    10.771    66.195    0.13E-03    0.31E-03    0.27E-06
   2      9    10.771    64.643    0.13E-03    0.32E-03    0.28E-06
   0     10    10.771    95.520    0.41E-04    0.13E-03    0.15E-06
   0     10    10.771    63.403    0.40E-04    0.12E-03    0.14E-06
   1      9    10.771    19.961    0.42E-03    0.19E-03    0.28E-06
   1      9    10.771    13.289    0.35E-03    0.16E-03    0.23E-06
 Optimization of the real space projectors (new method)

 maximal supplied QI-value         = 24.76
 optimisation between [QCUT,QGAM] = [ 10.64, 21.54] = [ 31.73,129.89] Ry 
 Optimized for a Real-space Cutoff    1.23 Angstroem

   l    n(q)    QCUT    max X(q) W(low)/X(q) W(high)/X(q)  e(spline) 
   0      8    10.645    20.381    0.38E-03    0.60E-03    0.15E-06
   0      8    10.645    15.268    0.40E-03    0.65E-03    0.17E-06
   1      7    10.645     5.964    0.30E-03    0.63E-03    0.18E-06
   1      7    10.645     5.382    0.24E-03    0.53E-03    0.16E-06
  PAW_PBE Pt 04Feb2005                  :
 energy of atom  1       EATOM= -729.1176
 kinetic energy error for atom=    0.0051 (will be added to EATOM!!)
  PAW_PBE O 08Apr2002                   :
 energy of atom  2       EATOM= -432.3788
 kinetic energy error for atom=    0.0389 (will be added to EATOM!!)
 
 
 POSCAR: Pt  O                                   
  positions in cartesian coordinates
  No initial velocities read in
 exchange correlation table for  LEXCH =        8
   RHO(1)=    0.500       N(1)  =     2000
   RHO(2)=  100.500       N(2)  =     4000

 VTST: version 3.2, (02/03/18)

 CHAIN: initializing optimizer
 
 OPT: Using VASP QUASI-newton optimizer
 CHAIN: Read ICHAIN            0
 
 POSCAR: Pt  O                                   
  positions in cartesian coordinates
  No initial velocities read in
 


--------------------------------------------------------------------------------------------------------


 ion  position               nearest neighbor table
   1  0.000  0.000  0.000-  34 2.81  29 2.82   5 2.82   4 2.82  28 2.82  36 2.82  60 2.82  25 2.86
                             9 2.86
   2  0.333  0.000  0.092-   3 2.74  30 2.76  33 2.81   4 2.82  28 2.82   5 2.82  29 2.82  37 2.82
                            61 2.82   6 2.85  10 2.86  26 2.86
   3  0.168  1.000  0.180-   2 2.74  29 2.77   5 2.77   8 2.79  32 2.80   7 2.81  30 2.81  62 2.82
                            38 2.83   6 2.85  11 2.85  27 2.86
   4  0.250  0.125  0.000-   5 2.81   2 2.82  10 2.82   9 2.82   1 2.82  33 2.82  41 2.82  12 2.86
                            28 2.86
   5  0.083  0.125  0.092-  38 2.75  11 2.75   3 2.77   4 2.81   1 2.82   9 2.82   2 2.82  34 2.82
                            10 2.82  42 2.82  29 2.86  13 2.86
   6  0.419  0.128  0.184-   8 2.76  43 2.77  39 2.78  47 2.79  37 2.80  10 2.81  11 2.82  14 2.82
                            35 2.82   3 2.85   2 2.85  30 2.90
   7  0.000  0.999  0.272-   8 2.79  40 2.80  62 2.80   3 2.81  64 2.81  32 2.81  38 2.82  31 2.84
                            15 2.84
   8  0.247  0.124  0.271-   6 2.76   3 2.79  15 2.79   7 2.79  11 2.80  32 2.85  39 2.85  47 2.85
                            16 2.88
   9  0.000  0.250  0.000-  42 2.81  13 2.82   5 2.82   4 2.82  36 2.82  12 2.82  44 2.82  17 2.86
                             1 2.86
  10  0.333  0.250  0.092-  11 2.75  14 2.77  41 2.81   6 2.81   4 2.82  12 2.82   5 2.82  37 2.82
                            13 2.82  45 2.82  18 2.86   2 2.86
  11  0.166  0.249  0.180-  10 2.75  16 2.75   5 2.75  13 2.76   8 2.80  38 2.81  15 2.81  46 2.81
                             6 2.82  14 2.82   3 2.85  19 2.88
  12  0.250  0.375  0.000-  13 2.81  10 2.82  18 2.82  17 2.82   9 2.82  41 2.82  49 2.82   4 2.86
                            20 2.86
  13  0.083  0.375  0.092-  46 2.73  19 2.76  11 2.76  12 2.81   9 2.82  17 2.82  10 2.82  42 2.82
                            18 2.82  50 2.82  21 2.86   5 2.86
  14  0.416  0.375  0.181-  45 2.77  10 2.77  18 2.77  16 2.79  51 2.81  43 2.81  11 2.82  19 2.82
                            22 2.82   6 2.82  55 2.88  47 2.88
  15  0.999  0.247  0.272-  48 2.75  16 2.76  40 2.79   8 2.79  38 2.80  11 2.81  46 2.84   7 2.84
                            23 2.92
  16  0.241  0.375  0.269-  11 2.75  19 2.75  15 2.76  23 2.76  14 2.79   8 2.88  24 2.88  55 2.91
                            47 2.91
  17  0.000  0.500  0.000-  50 2.81  21 2.82  13 2.82  12 2.82  44 2.82  20 2.82  52 2.82  25 2.86
                             9 2.86
  18  0.333  0.500  0.092-  19 2.75  14 2.77  49 2.81  22 2.81  12 2.82  20 2.82  13 2.82  45 2.82
                            21 2.82  53 2.82  26 2.86  10 2.86
  19  0.166  0.501  0.180-  18 2.75  16 2.75  21 2.75  13 2.76  24 2.80  54 2.81  23 2.81  46 2.81
                            22 2.82  14 2.82  27 2.85  11 2.88
  20  0.250  0.625  0.000-  21 2.81  18 2.82  26 2.82  25 2.82  17 2.82  49 2.82  57 2.82  12 2.86
                            28 2.86
  21  0.083  0.625  0.092-  54 2.75  19 2.75  27 2.77  20 2.81  17 2.82  25 2.82  18 2.82  50 2.82
                            26 2.82  58 2.82  29 2.86  13 2.86
  22  0.419  0.622  0.184-  24 2.76  51 2.77  63 2.78  55 2.79  53 2.80  18 2.81  19 2.82  14 2.82
                            59 2.82  27 2.85  26 2.85  30 2.90
  23  0.999  0.503  0.272-  48 2.75  16 2.76  56 2.79  24 2.79  54 2.80  19 2.81  46 2.84  31 2.84
                            15 2.92
  24  0.247  0.626  0.271-  22 2.76  27 2.79  23 2.79  31 2.79  19 2.80  32 2.85  63 2.85  55 2.86
                            16 2.88
  25  0.000  0.750  0.000-  58 2.81  29 2.82  21 2.82  20 2.82  52 2.82  28 2.82  60 2.82  17 2.86
                             1 2.86
  26  0.333  0.750  0.092-  27 2.74  30 2.76  57 2.81  20 2.82  28 2.82  21 2.82  53 2.82  29 2.82
                            61 2.82  22 2.85   2 2.86  18 2.86
  27  0.168  0.750  0.180-  26 2.74  29 2.77  21 2.77  24 2.79  32 2.80  31 2.81  30 2.81  62 2.82
                            54 2.83  22 2.85  19 2.85   3 2.86
  28  0.250  0.875  0.000-  29 2.81  26 2.82   2 2.82   1 2.82  25 2.82  33 2.82  57 2.82  20 2.86
                             4 2.86
  29  0.083  0.875  0.092-  62 2.75   3 2.77  27 2.77  28 2.81  25 2.82   1 2.82  26 2.82  34 2.82
                            58 2.82   2 2.82  21 2.86   5 2.86
  30  0.417  0.875  0.180-  61 2.74  26 2.76   2 2.76  39 2.80  63 2.80  32 2.80  27 2.81   3 2.81
                            59 2.82  35 2.82   6 2.90  22 2.90
  31  0.000  0.751  0.272-  24 2.79  56 2.80  62 2.80  27 2.81  64 2.81  32 2.81  54 2.82   7 2.84
                            23 2.84
  32  0.250  0.875  0.272-  30 2.80   3 2.80  27 2.80  39 2.81  63 2.81   7 2.81  31 2.81   8 2.85
                            24 2.85
  33  0.500  0.000  0.000-   2 2.81  37 2.82  61 2.82  36 2.82   4 2.82  60 2.82  28 2.82  41 2.86
                            57 2.86
  34  0.833  0.000  0.092-  35 2.75  38 2.76  62 2.77   1 2.81  60 2.82  36 2.82   5 2.82  29 2.82
                            61 2.82  37 2.82  58 2.86  42 2.86
  35  0.667  1.000  0.181-  34 2.75  61 2.77  37 2.77  40 2.79  39 2.80  64 2.80  30 2.82  38 2.82
                            62 2.82   6 2.82  59 2.86  43 2.86
  36  0.750  0.125  0.000-  37 2.81  34 2.82  42 2.82   1 2.82   9 2.82  41 2.82  33 2.82  44 2.86
                            60 2.86
  37  0.583  0.125  0.092-  35 2.77  43 2.79   6 2.80  36 2.81  41 2.82  33 2.82   2 2.82  34 2.82
                            42 2.82  10 2.82  45 2.86  61 2.86
  38  0.917  0.125  0.181-   5 2.75  34 2.76  42 2.77  40 2.78  15 2.80  11 2.81   7 2.82  35 2.82
                             3 2.83  43 2.84  62 2.86  46 2.86
  39  0.500  0.997  0.272-   6 2.78  35 2.80  30 2.80  63 2.80  32 2.81  64 2.81  40 2.84   8 2.85
                            47 2.89
  40  0.753  0.123  0.271-  38 2.78  15 2.79  35 2.79  43 2.79   7 2.80  64 2.84  39 2.84  47 2.85
                            48 2.89
  41  0.500  0.250  0.000-  10 2.81  37 2.82  45 2.82  36 2.82   4 2.82  44 2.82  12 2.82  33 2.86
                            49 2.86
  42  0.833  0.250  0.092-  46 2.76  38 2.77  43 2.79   9 2.81  44 2.82  36 2.82   5 2.82  37 2.82
                            45 2.82  13 2.82  34 2.86  50 2.86
  43  0.665  0.250  0.182-   6 2.77  48 2.78  45 2.79  40 2.79  42 2.79  37 2.79  14 2.81  47 2.82
                            38 2.84  46 2.84  51 2.86  35 2.86
  44  0.750  0.375  0.000-  45 2.81  42 2.82  50 2.82   9 2.82  17 2.82  49 2.82  41 2.82  36 2.86
                            52 2.86
  45  0.583  0.375  0.092-  14 2.77  51 2.79  43 2.79  44 2.81  49 2.82  41 2.82  10 2.82  42 2.82
                            50 2.82  18 2.82  37 2.86  53 2.86
  46  0.918  0.375  0.180-  48 2.72  13 2.73  42 2.76  50 2.76  19 2.81  11 2.81  15 2.84  23 2.84
                            51 2.84  43 2.84  38 2.86  54 2.86
  47  0.501  0.250  0.275-  65 2.01   6 2.79  43 2.82  40 2.85   8 2.85  55 2.87  14 2.88  39 2.89
                            48 2.90  16 2.91
  48  0.760  0.375  0.270-  46 2.72  15 2.75  23 2.75  51 2.78  43 2.78  56 2.88  40 2.89  55 2.90
                            47 2.90
  49  0.500  0.500  0.000-  18 2.81  45 2.82  53 2.82  44 2.82  12 2.82  52 2.82  20 2.82  41 2.86
                            57 2.86
  50  0.833  0.500  0.092-  46 2.76  54 2.77  51 2.79  17 2.81  52 2.82  44 2.82  13 2.82  45 2.82
                            53 2.82  21 2.82  42 2.86  58 2.86
  51  0.665  0.500  0.182-  22 2.77  48 2.78  45 2.79  56 2.79  50 2.79  53 2.79  14 2.81  55 2.82
                            54 2.84  46 2.84  43 2.86  59 2.86
  52  0.750  0.625  0.000-  53 2.81  50 2.82  58 2.82  17 2.82  25 2.82  57 2.82  49 2.82  44 2.86
                            60 2.86
  53  0.583  0.625  0.092-  59 2.77  51 2.79  22 2.80  52 2.81  57 2.82  49 2.82  18 2.82  50 2.82
                            58 2.82  26 2.82  45 2.86  61 2.86
  54  0.917  0.625  0.181-  21 2.75  58 2.76  50 2.77  56 2.78  23 2.80  19 2.81  31 2.82  59 2.82
                            27 2.83  51 2.84  62 2.86  46 2.86
  55  0.501  0.500  0.275-  66 2.01  22 2.79  51 2.82  56 2.85  24 2.86  47 2.87  14 2.88  63 2.89
                            48 2.90  16 2.91
  56  0.753  0.627  0.271-  54 2.78  23 2.79  59 2.79  51 2.79  31 2.80  64 2.84  63 2.84  55 2.85
                            48 2.88
  57  0.500  0.750  0.000-  26 2.81  53 2.82  61 2.82  52 2.82  20 2.82  60 2.82  28 2.82  33 2.86
                            49 2.86
  58  0.833  0.750  0.092-  59 2.75  54 2.76  62 2.77  25 2.81  60 2.82  52 2.82  21 2.82  53 2.82
                            61 2.82  29 2.82  50 2.86  34 2.86
  59  0.667  0.750  0.181-  58 2.75  61 2.77  53 2.77  56 2.79  63 2.80  64 2.80  30 2.82  54 2.82
                            62 2.82  22 2.82  35 2.86  51 2.86
  60  0.750  0.875  0.000-  61 2.81  58 2.82  34 2.82   1 2.82  57 2.82  25 2.82  33 2.82  52 2.86
                            36 2.86
  61  0.583  0.875  0.092-  30 2.74  35 2.77  59 2.77  60 2.81  33 2.82  57 2.82  26 2.82  58 2.82
                            34 2.82   2 2.82  37 2.86  53 2.86
  62  0.918  0.875  0.181-  29 2.75  34 2.77  58 2.77  64 2.79   7 2.80  31 2.80   3 2.82  27 2.82
                            35 2.82  59 2.82  38 2.86  54 2.86
  63  0.500  0.753  0.272-  22 2.78  59 2.80  30 2.80  39 2.80  32 2.81  64 2.81  56 2.84  24 2.85
                            55 2.89
  64  0.751  0.875  0.272-  62 2.79  59 2.80  35 2.80  31 2.81   7 2.81  39 2.81  63 2.81  40 2.84
                            56 2.84
  65  0.500  0.315  0.350-  66 1.37  47 2.01
  66  0.500  0.435  0.350-  65 1.37  55 2.01
 

IMPORTANT INFORMATION: All symmetrisations will be switched off!
NOSYMM: (Re-)initialisation of all symmetry stuff for point group C_1.

 
 
 KPOINTS: K-Spacing Value to Generate K-Mesh: 0.03

Automatic generation of k-mesh.
Space group operators:
 irot       det(A)        alpha          n_x          n_y          n_z        tau_x        tau_y        tau_z
    1     1.000000     0.000000     1.000000     0.000000     0.000000     0.000000     0.000000     0.000000
 
 Subroutine IBZKPT returns following result:
 ===========================================
 
 Found      5 irreducible k-points:
 
 Following reciprocal coordinates:
            Coordinates               Weight
  0.000000  0.000000  0.000000      1.000000
  0.333333  0.000000  0.000000      2.000000
  0.000000  0.333333  0.000000      2.000000
  0.333333  0.333333  0.000000      2.000000
 -0.333333  0.333333  0.000000      2.000000
 
 Following cartesian coordinates:
            Coordinates               Weight
  0.000000  0.000000  0.000000      1.000000
  0.034301  0.000000  0.000000      2.000000
  0.000000  0.029123  0.000000      2.000000
  0.034301  0.029123  0.000000      2.000000
 -0.034301  0.029123  0.000000      2.000000
 


--------------------------------------------------------------------------------------------------------




 Dimension of arrays:
   k-points           NKPTS =      5   k-points in BZ     NKDIM =      5   number of bands    NBANDS=    392
   number of dos      NEDOS =    301   number of ions     NIONS =     66
   non local maximal  LDIM  =      6   non local SUM 2l+1 LMDIM =     18
   total plane-waves  NPLWV = 420000
   max r-space proj   IRMAX =   2039   max aug-charges    IRDMAX=   9347
   dimension x,y,z NGX =    50 NGY =   60 NGZ =  140
   dimension x,y,z NGXF=   100 NGYF=  120 NGZF=  280
   support grid    NGXF=   100 NGYF=  120 NGZF=  280
   ions per type =              64   2
   NGX,Y,Z   is equivalent  to a cutoff of   8.55,  8.71,  9.31 a.u.
   NGXF,Y,Z  is equivalent  to a cutoff of  17.11, 17.43, 18.62 a.u.

 SYSTEM =  Pt111 O2 adsorption system              
 POSCAR =  Pt  O                                   

 Startparameter for this run:
   NWRITE =      2    write-flag & timer
   PREC   = normal    normal or accurate (medium, high low for compatibility)
   ISTART =      0    job   : 0-new  1-cont  2-samecut
   ICHARG =      1    charge: 1-file 2-atom 10-const
   ISPIN  =      1    spin polarized calculation?
   LNONCOLLINEAR =      F non collinear calculations
   LSORBIT =      F    spin-orbit coupling
   INIWAV =      1    electr: 0-lowe 1-rand  2-diag
   LASPH  =      F    aspherical Exc in radial PAW
   METAGGA=      F    non-selfconsistent MetaGGA calc.

 Electronic Relaxation 1
   ENCUT  =  450.0 eV  33.07 Ry    5.75 a.u.  16.81 19.80 43.24*2*pi/ulx,y,z
   ENINI  =  450.0     initial cutoff
   ENAUG  =  605.4 eV  augmentation charge cutoff
   NELM   =     60;   NELMIN=  2; NELMDL= -5     # of ELM steps 
   EDIFF  = 0.1E-05   stopping-criterion for ELM
   LREAL  =      T    real-space projection
   NLSPLINE    = F    spline interpolate recip. space projectors
   LCOMPAT=      F    compatible to vasp.4.4
   GGA_COMPAT  = T    GGA compatible to vasp.4.4-vasp.4.6
   LMAXPAW     = -100 max onsite density
   LMAXMIX     =    2 max onsite mixed and CHGCAR
   VOSKOWN=      0    Vosko Wilk Nusair interpolation
   ROPT   =   -0.00050  -0.00050
 Ionic relaxation
   EDIFFG = -.2E-01   stopping-criterion for IOM
   NSW    =    200    number of steps for IOM
   NBLOCK =      1;   KBLOCK =    200    inner block; outer block 
   IBRION =      1    ionic relax: 0-MD 1-quasi-New 2-CG
   NFREE  =      0    steps in history (QN), initial steepest desc. (CG)
   ISIF   =      2    stress and relaxation
   IWAVPR =     11    prediction:  0-non 1-charg 2-wave 3-comb
   ISYM   =      0    0-nonsym 1-usesym 2-fastsym
   LCORR  =      T    Harris-Foulkes like correction to forces

   POTIM  = 0.2000    time-step for ionic-motion
   TEIN   =    0.0    initial temperature
   TEBEG  =    0.0;   TEEND  =   0.0 temperature during run
   SMASS  =  -3.00    Nose mass-parameter (am)
   estimated Nose-frequenzy (Omega)   =  0.10E-29 period in steps =****** mass=  -0.216E-26a.u.
   SCALEE = 1.0000    scale energy and forces
   NPACO  =    256;   APACO  = 16.0  distance and # of slots for P.C.
   PSTRESS=    0.0 pullay stress

  Mass of Ions in am
   POMASS = 195.08 16.00
  Ionic Valenz
   ZVAL   =  10.00  6.00
  Atomic Wigner-Seitz radii
   RWIGS  =  -1.00 -1.00
  virtual crystal weights 
   VCA    =   1.00  1.00
   NELECT =     652.0000    total number of electrons
   NUPDOWN=      -1.0000    fix difference up-down

 DOS related values:
   EMIN   =  10.00;   EMAX   =-10.00  energy-range for DOS
   EFERMI =   0.00
   ISMEAR =     0;   SIGMA  =   0.10  broadening in eV -4-tet -1-fermi 0-gaus

 Electronic relaxation 2 (details)
   IALGO  =     68    algorithm
   LDIAG  =      T    sub-space diagonalisation (order eigenvalues)
   LSUBROT=      F    optimize rotation matrix (better conditioning)
   TURBO    =      0    0=normal 1=particle mesh
   IRESTART =      0    0=no restart 2=restart with 2 vectors
   NREBOOT  =      0    no. of reboots
   NMIN     =      0    reboot dimension
   EREF     =   0.00    reference energy to select bands
   IMIX   =      4    mixing-type and parameters
     AMIX     =   0.40;   BMIX     =  1.00
     AMIX_MAG =   1.60;   BMIX_MAG =  1.00
     AMIN     =   0.10
     WC   =   100.;   INIMIX=   1;  MIXPRE=   1;  MAXMIX= -45

 Intra band minimization:
   WEIMIN = 0.0010     energy-eigenvalue tresh-hold
   EBREAK =  0.64E-09  absolut break condition
   DEPER  =   0.30     relativ break condition  

   TIME   =   0.40     timestep for ELM

  volume/ion in A,a.u.               =      42.13       284.31
  Fermi-wavevector in a.u.,A,eV,Ry     =   1.009506  1.907691 13.865743  1.019103
  Thomas-Fermi vector in A             =   2.142439
 
 Write flags
   LWAVE        =      F    write WAVECAR
   LDOWNSAMPLE  =      F    k-point downsampling of WAVECAR
   LCHARG       =      F    write CHGCAR
   LVTOT        =      F    write LOCPOT, total local potential
   LVHAR        =      F    write LOCPOT, Hartree potential only
   LELF         =      F    write electronic localiz. function (ELF)
   LORBIT       =      0    0 simple, 1 ext, 2 COOP (PROOUT), +10 PAW based schemes


 Dipole corrections
   LMONO  =      F    monopole corrections only (constant potential shift)
   LDIPOL =      T    correct potential (dipole corrections)
   IDIPOL =      3    1-x, 2-y, 3-z, 4-all directions 
   EPSILON=  1.0000000 bulk dielectric constant

 Exchange correlation treatment:
   GGA     =    PE    GGA type
   LEXCH   =     8    internal setting for exchange type
   VOSKOWN=      0    Vosko Wilk Nusair interpolation
   LHFCALC =     F    Hartree Fock is set to
   LHFONE  =     F    Hartree Fock one center treatment
   AEXX    =    0.0000 exact exchange contribution

 Linear response parameters
   LEPSILON=     F    determine dielectric tensor
   LRPA    =     F    only Hartree local field effects (RPA)
   LNABLA  =     F    use nabla operator in PAW spheres
   LVEL    =     F    velocity operator in full k-point grid
   LINTERFAST=   F  fast interpolation
   KINTER  =     0    interpolate to denser k-point grid
   CSHIFT  =0.1000    complex shift for real part using Kramers Kronig
   OMEGAMAX=  -1.0    maximum frequency
   DEG_THRESHOLD= 0.2000000E-02 threshold for treating states as degnerate
   RTIME   =   -0.100 relaxation time in fs
  (WPLASMAI=    0.000 imaginary part of plasma frequency in eV, 0.658/RTIME)
   DFIELD  = 0.0000000 0.0000000 0.0000000 field for delta impulse in time
 
 Orbital magnetization related:
   ORBITALMAG=     F  switch on orbital magnetization
   LCHIMAG   =     F  perturbation theory with respect to B field
   DQ        =  0.001000  dq finite difference perturbation B field
   LLRAUG    =     F  two centre corrections for induced B field



--------------------------------------------------------------------------------------------------------


 quasi-Newton-method for relaxation of ions
   using selective dynamics as specified on POSCAR
   WARNING: If single coordinates had been selected the selection of coordinates
            is made according to the corresponding   d i r e c t   coordinates!
            Don't support selection of single cartesian coordinates -- sorry ...
  !
 charge density and potential will be updated during run
 non-spin polarized calculation
 RMM-DIIS sequential band-by-band and
  variant of blocked Davidson during initial phase
 perform sub-space diagonalisation
    before iterative eigenvector-optimisation
 modified Broyden-mixing scheme, WC =      100.0
 initial mixing is a Kerker type mixing with AMIX =  0.4000 and BMIX =      1.0000
 Hartree-type preconditioning will be used
 using additional bands           66
 real space projection scheme for non local part
 use partial core corrections
 calculate Harris-corrections to forces 
   (improved forces if not selfconsistent)
 use gradient corrections 
 use of overlap-Matrix (Vanderbilt PP)
 Gauss-broadening in eV      SIGMA  =   0.10


--------------------------------------------------------------------------------------------------------


  energy-cutoff  :      450.00
  volume of cell :     2780.64
      direct lattice vectors                 reciprocal lattice vectors
     9.717792020  0.000000000  0.000000000     0.102904034  0.000000000  0.000000000
     0.000000000 11.445562474  0.000000000     0.000000000  0.087370105  0.000000000
     0.000000000  0.000000000 25.000000000     0.000000000  0.000000000  0.040000000

  length of vectors
     9.717792020 11.445562474 25.000000000     0.102904034  0.087370105  0.040000000


 
 k-points in units of 2pi/SCALE and weight: K-Spacing Value to Generate K-Mesh: 0.03
   0.00000000  0.00000000  0.00000000       0.111
   0.03430134  0.00000000  0.00000000       0.222
   0.00000000  0.02912337  0.00000000       0.222
   0.03430134  0.02912337  0.00000000       0.222
  -0.03430134  0.02912337  0.00000000       0.222
 
 k-points in reciprocal lattice and weights: K-Spacing Value to Generate K-Mesh: 0.03
   0.00000000  0.00000000  0.00000000       0.111
   0.33333333  0.00000000  0.00000000       0.222
   0.00000000  0.33333333  0.00000000       0.222
   0.33333333  0.33333333  0.00000000       0.222
  -0.33333333  0.33333333  0.00000000       0.222
 
 position of ions in fractional coordinates (direct lattice) 
   0.00000000  0.00000000  0.00000000
   0.33333333  0.00000000  0.09162022
   0.16807601  0.99994058  0.18047985
   0.25000000  0.12500000  0.00000000
   0.08333333  0.12500000  0.09162022
   0.41909774  0.12842921  0.18364723
   0.00025473  0.99885525  0.27177123
   0.24736146  0.12375116  0.27131442
   0.00000000  0.25000000  0.00000000
   0.33333333  0.25000000  0.09162022
   0.16620715  0.24910760  0.18022226
   0.25000000  0.37500000  0.00000000
   0.08333333  0.37500000  0.09162022
   0.41571887  0.37499427  0.18109654
   0.99938381  0.24738606  0.27200758
   0.24051789  0.37498812  0.26927728
   0.00000000  0.50000000  0.00000000
   0.33333333  0.50000000  0.09162022
   0.16619719  0.50088677  0.18022448
   0.25000000  0.62500000  0.00000000
   0.08333333  0.62500000  0.09162022
   0.41909985  0.62154087  0.18365751
   0.99938490  0.50260569  0.27201074
   0.24737240  0.62623956  0.27132037
   0.00000000  0.75000000  0.00000000
   0.33333333  0.75000000  0.09162022
   0.16807752  0.75005067  0.18048233
   0.25000000  0.87500000  0.00000000
   0.08333333  0.87500000  0.09162022
   0.41728088  0.87499166  0.18042426
   0.00025350  0.75112897  0.27177220
   0.24966348  0.87500098  0.27164119
   0.50000000  0.00000000  0.00000000
   0.83333333  0.00000000  0.09162022
   0.66706835  0.99988689  0.18078812
   0.75000000  0.12500000  0.00000000
   0.58333333  0.12500000  0.09162022
   0.91722383  0.12479073  0.18052613
   0.49990283  0.99744975  0.27180872
   0.75252825  0.12302032  0.27122309
   0.50000000  0.25000000  0.00000000
   0.83333333  0.25000000  0.09162022
   0.66494081  0.25007544  0.18214498
   0.75000000  0.37500000  0.00000000
   0.58333333  0.37500000  0.09162022
   0.91785504  0.37499606  0.18002135
   0.50076162  0.24962599  0.27533352
   0.75975982  0.37499255  0.26992171
   0.50000000  0.50000000  0.00000000
   0.83333333  0.50000000  0.09162022
   0.66493833  0.49990658  0.18214783
   0.75000000  0.62500000  0.00000000
   0.58333333  0.62500000  0.09162022
   0.91721467  0.62520600  0.18053000
   0.50074826  0.50028572  0.27534917
   0.75250305  0.62694013  0.27123010
   0.50000000  0.75000000  0.00000000
   0.83333333  0.75000000  0.09162022
   0.66706528  0.75011137  0.18078918
   0.75000000  0.87500000  0.00000000
   0.58333333  0.87500000  0.09162022
   0.91771064  0.87500072  0.18064881
   0.49990210  0.75251725  0.27181089
   0.75092734  0.87498334  0.27152891
   0.50002109  0.31497334  0.34979517
   0.50000749  0.43488845  0.34980318
 
 position of ions in cartesian coordinates  (Angst):
   0.00000000  0.00000000  0.00000000
   3.23926402  0.00000000  2.29050552
   1.63332770 11.44488234  4.51199626
   2.42944800  1.43069531  0.00000000
   0.80981602  1.43069531  2.29050552
   4.07270472  1.46994453  4.59118068
   0.00247546 11.43246011  6.79428074
   2.40380725  1.41640162  6.78286039
   0.00000000  2.86139062  0.00000000
   3.23926402  2.86139062  2.29050552
   1.61516649  2.85117656  4.50555640
   2.42944800  4.29208593  0.00000000
   0.80981602  4.29208593  2.29050552
   4.03986955  4.29202030  4.52741350
   9.71180404  2.83147263  6.80018948
   2.33730279  4.29194990  6.73193198
   0.00000000  5.72278124  0.00000000
   3.23926402  5.72278124  2.29050552
   1.61506974  5.73293079  4.50561198
   2.42944800  7.15347655  0.00000000
   0.80981602  7.15347655  2.29050552
   4.07272516  7.11388485  4.59143777
   9.71181459  5.75260485  6.80026844
   2.40391355  7.16766402  6.78300937
   0.00000000  8.58417186  0.00000000
   3.23926402  8.58417186  2.29050552
   1.63334242  8.58475179  4.51205837
   2.42944800 10.01486716  0.00000000
   0.80981602 10.01486716  2.29050552
   4.05504884 10.01477174  4.51060656
   0.00246349  8.59709358  6.79430500
   2.42617782 10.01487839  6.79102973
   4.85889601  0.00000000  0.00000000
   8.09816003  0.00000000  2.29050552
   6.48243146 11.44426784  4.51970300
   7.28834401  1.43069531  0.00000000
   5.66871203  1.43069531  2.29050552
   8.91339045  1.42830009  4.51315326
   4.85795173 11.41637347  6.79521790
   7.31291307  1.40803673  6.78057731
   4.85889601  2.86139062  0.00000000
   8.09816003  2.86139062  2.29050552
   6.46175653  2.86225403  4.55362439
   7.28834401  4.29208593  0.00000000
   5.66871203  4.29208593  2.29050552
   8.91952438  4.29204081  4.50053377
   4.86629726  2.85710986  6.88333796
   7.38318787  4.29200065  6.74804270
   4.85889601  5.72278124  0.00000000
   8.09816003  5.72278124  2.29050552
   6.46173244  5.72171201  4.55369570
   7.28834401  7.15347655  0.00000000
   5.66871203  7.15347655  2.29050552
   8.91330140  7.15583430  4.51325010
   4.86616742  5.72605147  6.88372926
   7.31266818  7.17568241  6.78075253
   4.85889601  8.58417186  0.00000000
   8.09816003  8.58417186  2.29050552
   6.48240169  8.58544651  4.51972939
   7.28834401 10.01486716  0.00000000
   5.66871203 10.01486716  2.29050552
   8.91812116 10.01487546  4.51622033
   4.85794467  8.61298321  6.79527231
   7.29735575 10.01467650  6.78822268
   4.85910092  3.60504701  8.74487925
   4.85896875  4.97754292  8.74507956
 


--------------------------------------------------------------------------------------------------------


 k-point  1 :   0.0000 0.0000 0.0000  plane waves:   60269
 k-point  2 :   0.3333 0.0000 0.0000  plane waves:   60312
 k-point  3 :   0.0000 0.3333 0.0000  plane waves:   60294
 k-point  4 :   0.3333 0.3333 0.0000  plane waves:   60243
 k-point  5 :  -0.3333 0.3333 0.0000  plane waves:   60243

 maximum and minimum number of plane-waves per node :      7560     7504

 maximum number of plane-waves:     60312
 maximum index in each direction: 
   IXMAX=   17   IYMAX=   19   IZMAX=   43
   IXMIN=  -17   IYMIN=  -20   IZMIN=  -43


 real space projection operators:
  total allocation   :      17517.41 KBytes
  max/ min on nodes  :       2470.39       2073.66


 parallel 3D FFT for wavefunctions:
    minimum data exchange during FFTs selected (reduces bandwidth)
 parallel 3D FFT for charge:
    minimum data exchange during FFTs selected (reduces bandwidth)


 total amount of memory used by VASP MPI-rank0    75741. kBytes
=======================================================================

   base      :      30000. kBytes
   nonlr-proj:       5290. kBytes
   fftplans  :       3940. kBytes
   grid      :       6141. kBytes
   one-center:        139. kBytes
   wavefun   :      30231. kBytes
 
     INWAV:  cpu time    0.0000: real time    0.0001
 Broyden mixing: mesh for mixing (old mesh)
   NGX = 33   NGY = 39   NGZ = 87
  (NGX  =100   NGY  =120   NGZ  =280)
  gives a total of 111969 points

 initial charge density was supplied:
 charge density of overlapping atoms calculated
 number of electron     652.0000000 magnetization 
 keeping initial charge density in first step


--------------------------------------------------------------------------------------------------------


 Maximum index for non-local projection operator          388
 Maximum index for augmentation-charges          539 (set IRDMAX)


--------------------------------------------------------------------------------------------------------


 First call to EWALD:  gamma=   0.126
 Maximum number of real-space cells 4x 3x 2
 Maximum number of reciprocal cells 2x 2x 5

    FEWALD:  cpu time    0.0029: real time    0.0030


--------------------------------------- Iteration      1(   1)  ---------------------------------------


    POTLOK:  cpu time    0.0316: real time    0.0824
    SETDIJ:  cpu time    0.0039: real time    0.0040
     EDDAV:  cpu time    8.7576: real time    8.7723
       DOS:  cpu time    0.0011: real time    0.0011
    --------------------------------------------
      LOOP:  cpu time    8.7942: real time    8.8599

 eigenvalue-minimisations  :  3920
 total energy-change (2. order) : 0.4287641E+04  (-0.2658011E+05)
 number of electron     652.0000000 magnetization 
 augmentation part      652.0000000 magnetization 

 DIPCOR: dipole corrections for dipol
 direction  3 min pos   173,
 dipolmoment           0.000000      0.000000     -0.000231 electrons x Angstroem
 Tr[quadrupol]    -12896.122914

 energy correction for charged system         0.000000 eV
 dipol+quadrupol energy correction           -0.000000 eV
 added-field ion interaction          0.006312 eV  (added to PSCEN)


 Free energy of the ion-electron system (eV)
  ---------------------------------------------------
  alpha Z        PSCENC =      1437.36999676
  Ewald energy   TEWEN  =    241168.96366935
  -Hartree energ DENC   =   -291062.61552458
  -exchange      EXHF   =         0.00000000
  -V(xc)+E(xc)   XCENC  =       267.84592882
  PAW double counting   =     45245.00522118   -43438.47517393
  entropy T*S    EENTRO =        -0.15906719
  eigenvalues    EBANDS =      3141.82924941
  atomic energy  EATOM  =     47527.87699037
  Solvation  Ediel_sol  =         0.00000000
  ---------------------------------------------------
  free energy    TOTEN  =      4287.64129020 eV

  energy without entropy =     4287.80035739  energy(sigma->0) =     4287.72082380


--------------------------------------------------------------------------------------------------------




--------------------------------------- Iteration      1(   2)  ---------------------------------------


     EDDAV:  cpu time    9.9426: real time    9.9557
       DOS:  cpu time    0.0012: real time    0.0012
    --------------------------------------------
      LOOP:  cpu time    9.9438: real time    9.9569

 eigenvalue-minimisations  :  4640
 total energy-change (2. order) :-0.4338514E+04  (-0.4006604E+04)
 number of electron     652.0000000 magnetization 
 augmentation part      652.0000000 magnetization 

 DIPCOR: dipole corrections for dipol
 direction  3 min pos   173,
 dipolmoment           0.000000      0.000000     -0.000231 electrons x Angstroem
 Tr[quadrupol]    -12896.122914

 energy correction for charged system         0.000000 eV
 dipol+quadrupol energy correction           -0.000000 eV
 added-field ion interaction          0.006312 eV  (added to PSCEN)


 Free energy of the ion-electron system (eV)
  ---------------------------------------------------
  alpha Z        PSCENC =      1437.36999676
  Ewald energy   TEWEN  =    241168.96366935
  -Hartree energ DENC   =   -291062.61552458
  -exchange      EXHF   =         0.00000000
  -V(xc)+E(xc)   XCENC  =       267.84592882
  PAW double counting   =     45245.00522118   -43438.47517393
  entropy T*S    EENTRO =        -0.25693029
  eigenvalues    EBANDS =     -1196.58693790
  atomic energy  EATOM  =     47527.87699037
  Solvation  Ediel_sol  =         0.00000000
  ---------------------------------------------------
  free energy    TOTEN  =       -50.87276021 eV

  energy without entropy =      -50.61582992  energy(sigma->0) =      -50.74429506


--------------------------------------------------------------------------------------------------------




--------------------------------------- Iteration      1(   3)  ---------------------------------------


     EDDAV:  cpu time    9.8699: real time    9.8896
       DOS:  cpu time    0.0011: real time    0.0011
    --------------------------------------------
      LOOP:  cpu time    9.8710: real time    9.8906

 eigenvalue-minimisations  :  4576
 total energy-change (2. order) :-0.3377493E+03  (-0.3033989E+03)
 number of electron     652.0000000 magnetization 
 augmentation part      652.0000000 magnetization 

 DIPCOR: dipole corrections for dipol
 direction  3 min pos   173,
 dipolmoment           0.000000      0.000000     -0.000231 electrons x Angstroem
 Tr[quadrupol]    -12896.122914

 energy correction for charged system         0.000000 eV
 dipol+quadrupol energy correction           -0.000000 eV
 added-field ion interaction          0.006312 eV  (added to PSCEN)


 Free energy of the ion-electron system (eV)
  ---------------------------------------------------
  alpha Z        PSCENC =      1437.36999676
  Ewald energy   TEWEN  =    241168.96366935
  -Hartree energ DENC   =   -291062.61552458
  -exchange      EXHF   =         0.00000000
  -V(xc)+E(xc)   XCENC  =       267.84592882
  PAW double counting   =     45245.00522118   -43438.47517393
  entropy T*S    EENTRO =        -0.56818185
  eigenvalues    EBANDS =     -1534.02493720
  atomic energy  EATOM  =     47527.87699037
  Solvation  Ediel_sol  =         0.00000000
  ---------------------------------------------------
  free energy    TOTEN  =      -388.62201108 eV

  energy without entropy =     -388.05382922  energy(sigma->0) =     -388.33792015


--------------------------------------------------------------------------------------------------------




--------------------------------------- Iteration      1(   4)  ---------------------------------------


     EDDAV:  cpu time   10.7603: real time   10.7764
       DOS:  cpu time    0.0011: real time    0.0011
    --------------------------------------------
      LOOP:  cpu time   10.7614: real time   10.7775

 eigenvalue-minimisations  :  5112
 total energy-change (2. order) :-0.1745942E+02  (-0.1634441E+02)
 number of electron     652.0000000 magnetization 
 augmentation part      652.0000000 magnetization 

 DIPCOR: dipole corrections for dipol
 direction  3 min pos   173,
 dipolmoment           0.000000      0.000000     -0.000231 electrons x Angstroem
 Tr[quadrupol]    -12896.122914

 energy correction for charged system         0.000000 eV
 dipol+quadrupol energy correction           -0.000000 eV
 added-field ion interaction          0.006312 eV  (added to PSCEN)


 Free energy of the ion-electron system (eV)
  ---------------------------------------------------
  alpha Z        PSCENC =      1437.36999676
  Ewald energy   TEWEN  =    241168.96366935
  -Hartree energ DENC   =   -291062.61552458
  -exchange      EXHF   =         0.00000000
  -V(xc)+E(xc)   XCENC  =       267.84592882
  PAW double counting   =     45245.00522118   -43438.47517393
  entropy T*S    EENTRO =        -0.60514709
  eigenvalues    EBANDS =     -1551.44739089
  atomic energy  EATOM  =     47527.87699037
  Solvation  Ediel_sol  =         0.00000000
  ---------------------------------------------------
  free energy    TOTEN  =      -406.08143000 eV

  energy without entropy =     -405.47628291  energy(sigma->0) =     -405.77885646


--------------------------------------------------------------------------------------------------------




--------------------------------------- Iteration      1(   5)  ---------------------------------------


     EDDAV:  cpu time   11.0125: real time   11.0255
       DOS:  cpu time    0.0015: real time    0.0015
    CHARGE:  cpu time    0.1485: real time    0.1488
    MIXING:  cpu time    0.0016: real time    0.0018
    --------------------------------------------
      LOOP:  cpu time   11.1641: real time   11.1776

 eigenvalue-minimisations  :  5272
 total energy-change (2. order) :-0.4978881E+00  (-0.4934833E+00)
 number of electron     651.9999921 magnetization 
 augmentation part      187.6391646 magnetization 

 DIPCOR: dipole corrections for dipol
 direction  3 min pos   173,
 dipolmoment           0.000000      0.000000     -0.000231 electrons x Angstroem
 Tr[quadrupol]    -12896.122914

 energy correction for charged system         0.000000 eV
 dipol+quadrupol energy correction           -0.000000 eV
 added-field ion interaction          0.006312 eV  (added to PSCEN)


 Broyden mixing:
  rms(total) = 0.80417E+01    rms(broyden)= 0.80412E+01
  rms(prec ) = 0.81486E+01
  weight for this iteration     100.00

 Free energy of the ion-electron system (eV)
  ---------------------------------------------------
  alpha Z        PSCENC =      1437.36999676
  Ewald energy   TEWEN  =    241168.96366935
  -Hartree energ DENC   =   -291062.61552458
  -exchange      EXHF   =         0.00000000
  -V(xc)+E(xc)   XCENC  =       267.84592882
  PAW double counting   =     45245.00522118   -43438.47517393
  entropy T*S    EENTRO =        -0.60665499
  eigenvalues    EBANDS =     -1551.94377113
  atomic energy  EATOM  =     47527.87699037
  Solvation  Ediel_sol  =         0.00000000
  ---------------------------------------------------
  free energy    TOTEN  =      -406.57931814 eV

  energy without entropy =     -405.97266315  energy(sigma->0) =     -406.27599065


--------------------------------------------------------------------------------------------------------




--------------------------------------- Iteration      1(   6)  ---------------------------------------


    POTLOK:  cpu time    0.0301: real time    0.0303
    SETDIJ:  cpu time    0.0036: real time    0.0036
    EDDIAG:  cpu time    1.2647: real time    1.2659
  RMM-DIIS:  cpu time    3.4426: real time    3.4481
    ORTHCH:  cpu time    0.6177: real time    0.6181
       DOS:  cpu time    0.0009: real time    0.0009
    CHARGE:  cpu time    0.1470: real time    0.1473
    MIXING:  cpu time    0.0013: real time    0.0014
    --------------------------------------------
      LOOP:  cpu time    5.5079: real time    5.5156

 eigenvalue-minimisations  :  3937
 total energy-change (2. order) : 0.1229263E+02  (-0.7668372E+01)
 number of electron     651.9999867 magnetization 
 augmentation part      198.7227068 magnetization 

 DIPCOR: dipole corrections for dipol
 direction  3 min pos   188,
 dipolmoment           0.000000      0.000000      0.058068 electrons x Angstroem
 Tr[quadrupol]    -12885.530974

 energy correction for charged system         0.000000 eV
 dipol+quadrupol energy correction           -0.000110 eV
 added-field ion interaction          1.711408 eV  (added to PSCEN)


 Broyden mixing:
  rms(total) = 0.61415E+01    rms(broyden)= 0.61408E+01
  rms(prec ) = 0.65485E+01
  weight for this iteration     100.00

 eigenvalues of (default mixing * dielectric matrix)
  average eigenvalue GAMMA=   1.0637
  1.0637

 Free energy of the ion-electron system (eV)
  ---------------------------------------------------
  alpha Z        PSCENC =      1439.07498273
  Ewald energy   TEWEN  =    241168.96366935
  -Hartree energ DENC   =   -290292.79549936
  -exchange      EXHF   =         0.00000000
  -V(xc)+E(xc)   XCENC  =       252.38517048
  PAW double counting   =     49561.73402556   -47846.72757788
  entropy T*S    EENTRO =        -0.63928199
  eigenvalues    EBANDS =     -2204.15916523
  atomic energy  EATOM  =     47527.87699037
  Solvation  Ediel_sol  =         0.00000000
  ---------------------------------------------------
  free energy    TOTEN  =      -394.28668597 eV

  energy without entropy =     -393.64740398  energy(sigma->0) =     -393.96704497


--------------------------------------------------------------------------------------------------------




--------------------------------------- Iteration      1(   7)  ---------------------------------------


    POTLOK:  cpu time    0.0293: real time    0.0366
    SETDIJ:  cpu time    0.0036: real time    0.0037
    EDDIAG:  cpu time    1.2722: real time    1.2740
  RMM-DIIS:  cpu time    3.4521: real time    3.4556
    ORTHCH:  cpu time    0.6172: real time    0.6175
       DOS:  cpu time    0.0009: real time    0.0008
    CHARGE:  cpu time    0.1504: real time    0.1506
    MIXING:  cpu time    0.0009: real time    0.0010
    --------------------------------------------
      LOOP:  cpu time    5.5267: real time    5.5398

 eigenvalue-minimisations  :  3946
 total energy-change (2. order) :-0.9069595E+02  (-0.1572924E+02)
 number of electron     651.9999916 magnetization 
 augmentation part      194.4265947 magnetization 

 DIPCOR: dipole corrections for dipol
 direction  3 min pos   182,
 dipolmoment           0.000000      0.000000      2.345158 electrons x Angstroem
 Tr[quadrupol]    -12908.787225

 energy correction for charged system         0.000000 eV
 dipol+quadrupol energy correction           -0.178982 eV
 added-field ion interaction         15.808424 eV  (added to PSCEN)


 Broyden mixing:
  rms(total) = 0.74557E+01    rms(broyden)= 0.74549E+01
  rms(prec ) = 0.94260E+01
  weight for this iteration     100.00

 eigenvalues of (default mixing * dielectric matrix)
  average eigenvalue GAMMA=   1.0492
  1.8346  0.2639

 Free energy of the ion-electron system (eV)
  ---------------------------------------------------
  alpha Z        PSCENC =      1452.99312730
  Ewald energy   TEWEN  =    241168.96366935
  -Hartree energ DENC   =   -290847.15756357
  -exchange      EXHF   =         0.00000000
  -V(xc)+E(xc)   XCENC  =       246.46453050
  PAW double counting   =     52180.65900303   -50493.51961157
  entropy T*S    EENTRO =        -0.26945233
  eigenvalues    EBANDS =     -1720.99332955
  atomic energy  EATOM  =     47527.87699037
  Solvation  Ediel_sol  =         0.00000000
  ---------------------------------------------------
  free energy    TOTEN  =      -484.98263646 eV

  energy without entropy =     -484.71318414  energy(sigma->0) =     -484.84791030


--------------------------------------------------------------------------------------------------------




--------------------------------------- Iteration      1(   8)  ---------------------------------------


    POTLOK:  cpu time    0.0326: real time    0.0371
    SETDIJ:  cpu time    0.0035: real time    0.0035
    EDDIAG:  cpu time    1.2638: real time    1.2649
  RMM-DIIS:  cpu time    3.4520: real time    3.4584
    ORTHCH:  cpu time    0.6150: real time    0.6151
       DOS:  cpu time    0.0008: real time    0.0008
    CHARGE:  cpu time    0.1498: real time    0.1500
    MIXING:  cpu time    0.0010: real time    0.0010
    --------------------------------------------
      LOOP:  cpu time    5.5185: real time    5.5309

 eigenvalue-minimisations  :  3935
 total energy-change (2. order) :-0.4636943E+02  (-0.1404350E+02)
 number of electron     651.9999935 magnetization 
 augmentation part      195.7341588 magnetization 

 DIPCOR: dipole corrections for dipol
 direction  3 min pos   182,
 dipolmoment           0.000000      0.000000     -3.728860 electrons x Angstroem
 Tr[quadrupol]    -12900.193247

 energy correction for charged system         0.000000 eV
 dipol+quadrupol energy correction           -0.452498 eV
 added-field ion interaction        -25.135795 eV  (added to PSCEN)


 Broyden mixing:
  rms(total) = 0.81830E+01    rms(broyden)= 0.81829E+01
  rms(prec ) = 0.11443E+02
  weight for this iteration     100.00

 eigenvalues of (default mixing * dielectric matrix)
  average eigenvalue GAMMA=   0.8878
  2.1729  0.3151  0.1756

 Free energy of the ion-electron system (eV)
  ---------------------------------------------------
  alpha Z        PSCENC =      1411.77539209
  Ewald energy   TEWEN  =    241168.96366935
  -Hartree energ DENC   =   -290539.20756023
  -exchange      EXHF   =         0.00000000
  -V(xc)+E(xc)   XCENC  =       242.42977800
  PAW double counting   =     54902.00262406   -53252.48238915
  entropy T*S    EENTRO =        -0.34857496
  eigenvalues    EBANDS =     -1992.36199504
  atomic energy  EATOM  =     47527.87699037
  Solvation  Ediel_sol  =         0.00000000
  ---------------------------------------------------
  free energy    TOTEN  =      -531.35206550 eV

  energy without entropy =     -531.00349054  energy(sigma->0) =     -531.17777802


--------------------------------------------------------------------------------------------------------




--------------------------------------- Iteration      1(   9)  ---------------------------------------


    POTLOK:  cpu time    0.0316: real time    0.0316
    SETDIJ:  cpu time    0.0038: real time    0.0038
    EDDIAG:  cpu time    1.2611: real time    1.2623
  RMM-DIIS:  cpu time    3.4368: real time    3.4402
    ORTHCH:  cpu time    0.6180: real time    0.6182
       DOS:  cpu time    0.0008: real time    0.0008
    CHARGE:  cpu time    0.1490: real time    0.1492
    MIXING:  cpu time    0.0010: real time    0.0010
    --------------------------------------------
      LOOP:  cpu time    5.5021: real time    5.5072

 eigenvalue-minimisations  :  3939
 total energy-change (2. order) : 0.1250389E+03  (-0.5881277E+01)
 number of electron     651.9999893 magnetization 
 augmentation part      201.3426163 magnetization 

 DIPCOR: dipole corrections for dipol
 direction  3 min pos   185,
 dipolmoment           0.000000      0.000000      0.952247 electrons x Angstroem
 Tr[quadrupol]    -12895.541728

 energy correction for charged system         0.000000 eV
 dipol+quadrupol energy correction           -0.029510 eV
 added-field ion interaction         17.242118 eV  (added to PSCEN)


 Broyden mixing:
  rms(total) = 0.40982E+01    rms(broyden)= 0.40979E+01
  rms(prec ) = 0.59445E+01
  weight for this iteration     100.00

 eigenvalues of (default mixing * dielectric matrix)
  average eigenvalue GAMMA=   0.8173
  2.2843  0.5125  0.3388  0.1336

 Free energy of the ion-electron system (eV)
  ---------------------------------------------------
  alpha Z        PSCENC =      1454.57629316
  Ewald energy   TEWEN  =    241168.96366935
  -Hartree energ DENC   =   -290287.90538617
  -exchange      EXHF   =         0.00000000
  -V(xc)+E(xc)   XCENC  =       241.12335167
  PAW double counting   =     56315.54473148   -54687.03061924
  entropy T*S    EENTRO =        -0.46985704
  eigenvalues    EBANDS =     -2138.99235782
  atomic energy  EATOM  =     47527.87699037
  Solvation  Ediel_sol  =         0.00000000
  ---------------------------------------------------
  free energy    TOTEN  =      -406.31318423 eV

  energy without entropy =     -405.84332720  energy(sigma->0) =     -406.07825572


--------------------------------------------------------------------------------------------------------




--------------------------------------- Iteration      1(  10)  ---------------------------------------


    POTLOK:  cpu time    0.0281: real time    0.0283
    SETDIJ:  cpu time    0.0035: real time    0.0035
    EDDIAG:  cpu time    1.2623: real time    1.2634
  RMM-DIIS:  cpu time    3.3927: real time    3.3987
    ORTHCH:  cpu time    0.6161: real time    0.6165
       DOS:  cpu time    0.0009: real time    0.0009
    CHARGE:  cpu time    0.1485: real time    0.1487
    MIXING:  cpu time    0.0011: real time    0.0011
    --------------------------------------------
      LOOP:  cpu time    5.4533: real time    5.4610

 eigenvalue-minimisations  :  3923
 total energy-change (2. order) : 0.6445929E+01  (-0.3946535E+01)
 number of electron     651.9999920 magnetization 
 augmentation part      200.6990115 magnetization 

 DIPCOR: dipole corrections for dipol
 direction  3 min pos   181,
 dipolmoment           0.000000      0.000000     -1.111504 electrons x Angstroem
 Tr[quadrupol]    -12895.959382

 energy correction for charged system         0.000000 eV
 dipol+quadrupol energy correction           -0.040206 eV
 added-field ion interaction         -3.281433 eV  (added to PSCEN)


 Broyden mixing:
  rms(total) = 0.36937E+01    rms(broyden)= 0.36936E+01
  rms(prec ) = 0.47991E+01
  weight for this iteration     100.00

 eigenvalues of (default mixing * dielectric matrix)
  average eigenvalue GAMMA=   0.7425
  2.1925  0.7384  0.4280  0.2367  0.1168

 Free energy of the ion-electron system (eV)
  ---------------------------------------------------
  alpha Z        PSCENC =      1434.04204574
  Ewald energy   TEWEN  =    241168.96366935
  -Hartree energ DENC   =   -290355.79150238
  -exchange      EXHF   =         0.00000000
  -V(xc)+E(xc)   XCENC  =       242.13551794
  PAW double counting   =     56817.68708691   -55192.73968902
  entropy T*S    EENTRO =        -0.58668354
  eigenvalues    EBANDS =     -2041.45469075
  atomic energy  EATOM  =     47527.87699037
  Solvation  Ediel_sol  =         0.00000000
  ---------------------------------------------------
  free energy    TOTEN  =      -399.86725538 eV

  energy without entropy =     -399.28057184  energy(sigma->0) =     -399.57391361


--------------------------------------------------------------------------------------------------------




--------------------------------------- Iteration      1(  11)  ---------------------------------------


    POTLOK:  cpu time    0.0280: real time    0.0281
    SETDIJ:  cpu time    0.0035: real time    0.0035
    EDDIAG:  cpu time    1.2628: real time    1.2638
  RMM-DIIS:  cpu time    3.4092: real time    3.4125
    ORTHCH:  cpu time    0.6172: real time    0.6174
       DOS:  cpu time    0.0009: real time    0.0009
    CHARGE:  cpu time    0.1475: real time    0.1477
    MIXING:  cpu time    0.0011: real time    0.0011
    --------------------------------------------
      LOOP:  cpu time    5.4701: real time    5.4751

 eigenvalue-minimisations  :  3926
 total energy-change (2. order) : 0.1430435E+02  (-0.9744624E+00)
 number of electron     651.9999898 magnetization 
 augmentation part      200.7514020 magnetization 

 DIPCOR: dipole corrections for dipol
 direction  3 min pos   184,
 dipolmoment           0.000000      0.000000     -0.114957 electrons x Angstroem
 Tr[quadrupol]    -12895.377450

 energy correction for charged system         0.000000 eV
 dipol+quadrupol energy correction           -0.000430 eV
 added-field ion interaction         -1.645969 eV  (added to PSCEN)


 Broyden mixing:
  rms(total) = 0.22346E+01    rms(broyden)= 0.22339E+01
  rms(prec ) = 0.26817E+01
  weight for this iteration     100.00

 eigenvalues of (default mixing * dielectric matrix)
  average eigenvalue GAMMA=   0.6883
  1.9457  1.0309  0.4696  0.2815  0.2815  0.1204

 Free energy of the ion-electron system (eV)
  ---------------------------------------------------
  alpha Z        PSCENC =      1435.71728559
  Ewald energy   TEWEN  =    241168.96366935
  -Hartree energ DENC   =   -290384.68770796
  -exchange      EXHF   =         0.00000000
  -V(xc)+E(xc)   XCENC  =       244.12613677
  PAW double counting   =     56764.27456474   -55134.59012359
  entropy T*S    EENTRO =        -0.60311869
  eigenvalues    EBANDS =     -2006.64059811
  atomic energy  EATOM  =     47527.87699037
  Solvation  Ediel_sol  =         0.00000000
  ---------------------------------------------------
  free energy    TOTEN  =      -385.56290153 eV

  energy without entropy =     -384.95978284  energy(sigma->0) =     -385.26134219


--------------------------------------------------------------------------------------------------------




--------------------------------------- Iteration      1(  12)  ---------------------------------------


    POTLOK:  cpu time    0.0287: real time    0.0392
    SETDIJ:  cpu time    0.0036: real time    0.0036
    EDDIAG:  cpu time    1.2619: real time    1.2656
  RMM-DIIS:  cpu time    3.4395: real time    3.4431
    ORTHCH:  cpu time    0.6145: real time    0.6148
       DOS:  cpu time    0.0009: real time    0.0009
    CHARGE:  cpu time    0.1499: real time    0.1501
    MIXING:  cpu time    0.0011: real time    0.0011
    --------------------------------------------
      LOOP:  cpu time    5.5001: real time    5.5184

 eigenvalue-minimisations  :  3932
 total energy-change (2. order) : 0.1323196E+01  (-0.5054442E+00)
 number of electron     651.9999905 magnetization 
 augmentation part      200.1803799 magnetization 

 DIPCOR: dipole corrections for dipol
 direction  3 min pos   182,
 dipolmoment           0.000000      0.000000     -0.406745 electrons x Angstroem
 Tr[quadrupol]    -12894.088076

 energy correction for charged system         0.000000 eV
 dipol+quadrupol energy correction           -0.005384 eV
 added-field ion interaction         -2.741816 eV  (added to PSCEN)


 Broyden mixing:
  rms(total) = 0.21157E+01    rms(broyden)= 0.21154E+01
  rms(prec ) = 0.28679E+01
  weight for this iteration     100.00

 eigenvalues of (default mixing * dielectric matrix)
  average eigenvalue GAMMA=   0.6485
  1.9066  1.0675  0.4877  0.4877  0.2768  0.1187  0.1949

 Free energy of the ion-electron system (eV)
  ---------------------------------------------------
  alpha Z        PSCENC =      1434.61648451
  Ewald energy   TEWEN  =    241168.96366935
  -Hartree energ DENC   =   -290376.16560146
  -exchange      EXHF   =         0.00000000
  -V(xc)+E(xc)   XCENC  =       245.09116852
  PAW double counting   =     56542.54369019   -54906.57266083
  entropy T*S    EENTRO =        -0.60199494
  eigenvalues    EBANDS =     -2019.99145140
  atomic energy  EATOM  =     47527.87699037
  Solvation  Ediel_sol  =         0.00000000
  ---------------------------------------------------
  free energy    TOTEN  =      -384.23970568 eV

  energy without entropy =     -383.63771074  energy(sigma->0) =     -383.93870821


--------------------------------------------------------------------------------------------------------




--------------------------------------- Iteration      1(  13)  ---------------------------------------


    POTLOK:  cpu time    0.0287: real time    0.0289
    SETDIJ:  cpu time    0.0035: real time    0.0035
    EDDIAG:  cpu time    1.2677: real time    1.2688
  RMM-DIIS:  cpu time    3.4205: real time    3.4249
    ORTHCH:  cpu time    0.6160: real time    0.6162
       DOS:  cpu time    0.0009: real time    0.0009
    CHARGE:  cpu time    0.1484: real time    0.1486
    MIXING:  cpu time    0.0012: real time    0.0012
    --------------------------------------------
      LOOP:  cpu time    5.4868: real time    5.4931

 eigenvalue-minimisations  :  3932
 total energy-change (2. order) : 0.2994204E+01  (-0.1912083E+00)
 number of electron     651.9999900 magnetization 
 augmentation part      200.2145337 magnetization 

 DIPCOR: dipole corrections for dipol
 direction  3 min pos   189,
 dipolmoment           0.000000      0.000000     -0.222671 electrons x Angstroem
 Tr[quadrupol]    -12893.091530

 energy correction for charged system         0.000000 eV
 dipol+quadrupol energy correction           -0.001614 eV
 added-field ion interaction         -7.406339 eV  (added to PSCEN)


 Broyden mixing:
  rms(total) = 0.12931E+01    rms(broyden)= 0.12930E+01
  rms(prec ) = 0.16626E+01
  weight for this iteration     100.00

 eigenvalues of (default mixing * dielectric matrix)
  average eigenvalue GAMMA=   0.6449
  2.0751  0.8505  0.8505  0.5860  0.2562  0.2562  0.1190  0.1656

 Free energy of the ion-electron system (eV)
  ---------------------------------------------------
  alpha Z        PSCENC =      1429.95573235
  Ewald energy   TEWEN  =    241168.96366935
  -Hartree energ DENC   =   -290361.27144261
  -exchange      EXHF   =         0.00000000
  -V(xc)+E(xc)   XCENC  =       245.43157250
  PAW double counting   =     56555.37752778   -54918.31188163
  entropy T*S    EENTRO =        -0.67783790
  eigenvalues    EBANDS =     -2028.58983204
  atomic energy  EATOM  =     47527.87699037
  Solvation  Ediel_sol  =         0.00000000
  ---------------------------------------------------
  free energy    TOTEN  =      -381.24550182 eV

  energy without entropy =     -380.56766392  energy(sigma->0) =     -380.90658287


--------------------------------------------------------------------------------------------------------




--------------------------------------- Iteration      1(  14)  ---------------------------------------


    POTLOK:  cpu time    0.0289: real time    0.0388
    SETDIJ:  cpu time    0.0035: real time    0.0035
    EDDIAG:  cpu time    1.2560: real time    1.2596
  RMM-DIIS:  cpu time    3.4407: real time    3.4439
    ORTHCH:  cpu time    0.6146: real time    0.6149
       DOS:  cpu time    0.0008: real time    0.0008
    CHARGE:  cpu time    0.1617: real time    0.1619
    MIXING:  cpu time    0.0013: real time    0.0013
    --------------------------------------------
      LOOP:  cpu time    5.5075: real time    5.5248

 eigenvalue-minimisations  :  3936
 total energy-change (2. order) : 0.1048798E+01  (-0.1061426E+00)
 number of electron     651.9999887 magnetization 
 augmentation part      200.5352033 magnetization 

 DIPCOR: dipole corrections for dipol
 direction  3 min pos   190,
 dipolmoment           0.000000      0.000000      0.077407 electrons x Angstroem
 Tr[quadrupol]    -12893.346204

 energy correction for charged system         0.000000 eV
 dipol+quadrupol energy correction           -0.000195 eV
 added-field ion interaction          2.867934 eV  (added to PSCEN)


 Broyden mixing:
  rms(total) = 0.94344E+00    rms(broyden)= 0.94173E+00
  rms(prec ) = 0.10867E+01
  weight for this iteration     100.00

 eigenvalues of (default mixing * dielectric matrix)
  average eigenvalue GAMMA=   0.6205
  2.1541  0.8610  0.8610  0.6881  0.2738  0.2738  0.1193  0.1920  0.1614

 Free energy of the ion-electron system (eV)
  ---------------------------------------------------
  alpha Z        PSCENC =      1440.23142334
  Ewald energy   TEWEN  =    241168.96366935
  -Hartree energ DENC   =   -290352.32597258
  -exchange      EXHF   =         0.00000000
  -V(xc)+E(xc)   XCENC  =       245.36126047
  PAW double counting   =     56679.18882302   -55043.55838450
  entropy T*S    EENTRO =        -0.69543832
  eigenvalues    EBANDS =     -2045.23907487
  atomic energy  EATOM  =     47527.87699037
  Solvation  Ediel_sol  =         0.00000000
  ---------------------------------------------------
  free energy    TOTEN  =      -380.19670372 eV

  energy without entropy =     -379.50126540  energy(sigma->0) =     -379.84898456


--------------------------------------------------------------------------------------------------------




--------------------------------------- Iteration      1(  15)  ---------------------------------------


    POTLOK:  cpu time    0.0289: real time    0.0291
    SETDIJ:  cpu time    0.0035: real time    0.0035
    EDDIAG:  cpu time    1.2611: real time    1.2622
  RMM-DIIS:  cpu time    3.4639: real time    3.4694
    ORTHCH:  cpu time    0.6172: real time    0.6175
       DOS:  cpu time    0.0009: real time    0.0009
    CHARGE:  cpu time    0.1484: real time    0.1486
    MIXING:  cpu time    0.0014: real time    0.0014
    --------------------------------------------
      LOOP:  cpu time    5.5253: real time    5.5326

 eigenvalue-minimisations  :  3951
 total energy-change (2. order) : 0.3661224E+00  (-0.2487905E-01)
 number of electron     651.9999893 magnetization 
 augmentation part      200.4767123 magnetization 

 DIPCOR: dipole corrections for dipol
 direction  3 min pos   192,
 dipolmoment           0.000000      0.000000      0.055217 electrons x Angstroem
 Tr[quadrupol]    -12893.449129

 energy correction for charged system         0.000000 eV
 dipol+quadrupol energy correction           -0.000099 eV
 added-field ion interaction          2.464182 eV  (added to PSCEN)


 Broyden mixing:
  rms(total) = 0.61082E+00    rms(broyden)= 0.61062E+00
  rms(prec ) = 0.67789E+00
  weight for this iteration     100.00

 eigenvalues of (default mixing * dielectric matrix)
  average eigenvalue GAMMA=   0.5837
  2.1574  0.8801  0.8801  0.6688  0.2834  0.2834  0.2111  0.2111  0.1191  0.1426

 Free energy of the ion-electron system (eV)
  ---------------------------------------------------
  alpha Z        PSCENC =      1439.82776737
  Ewald energy   TEWEN  =    241168.96366935
  -Hartree energ DENC   =   -290350.81142499
  -exchange      EXHF   =         0.00000000
  -V(xc)+E(xc)   XCENC  =       245.13194084
  PAW double counting   =     56742.85487853   -55108.10471083
  entropy T*S    EENTRO =        -0.71899879
  eigenvalues    EBANDS =     -2044.85069317
  atomic energy  EATOM  =     47527.87699037
  Solvation  Ediel_sol  =         0.00000000
  ---------------------------------------------------
  free energy    TOTEN  =      -379.83058132 eV

  energy without entropy =     -379.11158253  energy(sigma->0) =     -379.47108193


--------------------------------------------------------------------------------------------------------




--------------------------------------- Iteration      1(  16)  ---------------------------------------


    POTLOK:  cpu time    0.0307: real time    0.0308
    SETDIJ:  cpu time    0.0036: real time    0.0036
    EDDIAG:  cpu time    1.2638: real time    1.2648
  RMM-DIIS:  cpu time    3.4575: real time    3.4608
    ORTHCH:  cpu time    0.6143: real time    0.6145
       DOS:  cpu time    0.0009: real time    0.0009
    CHARGE:  cpu time    0.1480: real time    0.1482
    MIXING:  cpu time    0.0015: real time    0.0015
    --------------------------------------------
      LOOP:  cpu time    5.5203: real time    5.5251

 eigenvalue-minimisations  :  3962
 total energy-change (2. order) : 0.5632428E-01  (-0.6011361E-02)
 number of electron     651.9999895 magnetization 
 augmentation part      200.4582155 magnetization 

 DIPCOR: dipole corrections for dipol
 direction  3 min pos   191,
 dipolmoment           0.000000      0.000000      0.047347 electrons x Angstroem
 Tr[quadrupol]    -12893.468068

 energy correction for charged system         0.000000 eV
 dipol+quadrupol energy correction           -0.000073 eV
 added-field ion interaction          1.933565 eV  (added to PSCEN)


 Broyden mixing:
  rms(total) = 0.48002E+00    rms(broyden)= 0.47984E+00
  rms(prec ) = 0.51842E+00
  weight for this iteration     100.00

 eigenvalues of (default mixing * dielectric matrix)
  average eigenvalue GAMMA=   0.5855
  2.1291  0.9609  0.9609  0.5247  0.5247  0.4341  0.2425  0.2425  0.1192  0.1600
  0.1419

 Free energy of the ion-electron system (eV)
  ---------------------------------------------------
  alpha Z        PSCENC =      1439.29717622
  Ewald energy   TEWEN  =    241168.96366935
  -Hartree energ DENC   =   -290350.39859078
  -exchange      EXHF   =         0.00000000
  -V(xc)+E(xc)   XCENC  =       245.08249343
  PAW double counting   =     56745.66015148   -55110.95769907
  entropy T*S    EENTRO =        -0.72232599
  eigenvalues    EBANDS =     -2044.57612206
  atomic energy  EATOM  =     47527.87699037
  Solvation  Ediel_sol  =         0.00000000
  ---------------------------------------------------
  free energy    TOTEN  =      -379.77425704 eV

  energy without entropy =     -379.05193105  energy(sigma->0) =     -379.41309405


--------------------------------------------------------------------------------------------------------




--------------------------------------- Iteration      1(  17)  ---------------------------------------


    POTLOK:  cpu time    0.0288: real time    0.0289
    SETDIJ:  cpu time    0.0036: real time    0.0036
    EDDIAG:  cpu time    1.2683: real time    1.2692
  RMM-DIIS:  cpu time    3.4243: real time    3.4304
    ORTHCH:  cpu time    0.6153: real time    0.6155
       DOS:  cpu time    0.0009: real time    0.0008
    CHARGE:  cpu time    0.1484: real time    0.1486
    MIXING:  cpu time    0.0016: real time    0.0016
    --------------------------------------------
      LOOP:  cpu time    5.4911: real time    5.4985

 eigenvalue-minimisations  :  3932
 total energy-change (2. order) : 0.1239041E-01  (-0.4888651E-02)
 number of electron     651.9999894 magnetization 
 augmentation part      200.5006169 magnetization 

 DIPCOR: dipole corrections for dipol
 direction  3 min pos   191,
 dipolmoment           0.000000      0.000000      0.046813 electrons x Angstroem
 Tr[quadrupol]    -12893.531603

 energy correction for charged system         0.000000 eV
 dipol+quadrupol energy correction           -0.000071 eV
 added-field ion interaction          1.911775 eV  (added to PSCEN)


 Broyden mixing:
  rms(total) = 0.41639E+00    rms(broyden)= 0.41631E+00
  rms(prec ) = 0.44879E+00
  weight for this iteration     100.00

 eigenvalues of (default mixing * dielectric matrix)
  average eigenvalue GAMMA=   0.6365
  1.8851  1.2737  1.2737  0.7978  0.7978  0.4375  0.2731  0.2731  0.2044  0.1192
  0.1679  0.1348

 Free energy of the ion-electron system (eV)
  ---------------------------------------------------
  alpha Z        PSCENC =      1439.27538848
  Ewald energy   TEWEN  =    241168.96366935
  -Hartree energ DENC   =   -290353.32245551
  -exchange      EXHF   =         0.00000000
  -V(xc)+E(xc)   XCENC  =       245.14730093
  PAW double counting   =     56722.63999725   -55087.57056386
  entropy T*S    EENTRO =        -0.72614320
  eigenvalues    EBANDS =     -2042.04605048
  atomic energy  EATOM  =     47527.87699037
  Solvation  Ediel_sol  =         0.00000000
  ---------------------------------------------------
  free energy    TOTEN  =      -379.76186664 eV

  energy without entropy =     -379.03572344  energy(sigma->0) =     -379.39879504


--------------------------------------------------------------------------------------------------------




--------------------------------------- Iteration      1(  18)  ---------------------------------------


    POTLOK:  cpu time    0.0307: real time    0.0356
    SETDIJ:  cpu time    0.0035: real time    0.0035
    EDDIAG:  cpu time    1.2745: real time    1.2756
  RMM-DIIS:  cpu time    3.4253: real time    3.4286
    ORTHCH:  cpu time    0.6158: real time    0.6161
       DOS:  cpu time    0.0009: real time    0.0009
    CHARGE:  cpu time    0.1493: real time    0.1495
    MIXING:  cpu time    0.0017: real time    0.0017
    --------------------------------------------
      LOOP:  cpu time    5.5017: real time    5.5115

 eigenvalue-minimisations  :  3930
 total energy-change (2. order) : 0.2994367E-01  (-0.8860299E-02)
 number of electron     651.9999895 magnetization 
 augmentation part      200.3662757 magnetization 

 DIPCOR: dipole corrections for dipol
 direction  3 min pos   191,
 dipolmoment           0.000000      0.000000      0.028454 electrons x Angstroem
 Tr[quadrupol]    -12893.705732

 energy correction for charged system         0.000000 eV
 dipol+quadrupol energy correction           -0.000026 eV
 added-field ion interaction          1.162025 eV  (added to PSCEN)


 Broyden mixing:
  rms(total) = 0.27014E+00    rms(broyden)= 0.27005E+00
  rms(prec ) = 0.29703E+00
  weight for this iteration     100.00

 eigenvalues of (default mixing * dielectric matrix)
  average eigenvalue GAMMA=   0.6860
  1.7311  1.7311  1.5935  0.8340  0.8340  0.7105  0.3142  0.2702  0.2702  0.2128
  0.1192  0.1635  0.1341

 Free energy of the ion-electron system (eV)
  ---------------------------------------------------
  alpha Z        PSCENC =      1438.52568342
  Ewald energy   TEWEN  =    241168.96366935
  -Hartree energ DENC   =   -290364.98719436
  -exchange      EXHF   =         0.00000000
  -V(xc)+E(xc)   XCENC  =       245.42376883
  PAW double counting   =     56640.74978511   -55003.90515194
  entropy T*S    EENTRO =        -0.72951201
  eigenvalues    EBANDS =     -2031.64996173
  atomic energy  EATOM  =     47527.87699037
  Solvation  Ediel_sol  =         0.00000000
  ---------------------------------------------------
  free energy    TOTEN  =      -379.73192296 eV

  energy without entropy =     -379.00241095  energy(sigma->0) =     -379.36716696


--------------------------------------------------------------------------------------------------------




--------------------------------------- Iteration      1(  19)  ---------------------------------------


    POTLOK:  cpu time    0.0322: real time    0.0323
    SETDIJ:  cpu time    0.0035: real time    0.0035
    EDDIAG:  cpu time    1.2627: real time    1.2638
  RMM-DIIS:  cpu time    3.4258: real time    3.4317
    ORTHCH:  cpu time    0.6157: real time    0.6160
       DOS:  cpu time    0.0009: real time    0.0009
    CHARGE:  cpu time    0.1489: real time    0.1491
    MIXING:  cpu time    0.0017: real time    0.0017
    --------------------------------------------
      LOOP:  cpu time    5.4915: real time    5.4990

 eigenvalue-minimisations  :  3934
 total energy-change (2. order) :-0.3175592E-01  (-0.9875597E-02)
 number of electron     651.9999894 magnetization 
 augmentation part      200.2757568 magnetization 

 DIPCOR: dipole corrections for dipol
 direction  3 min pos   191,
 dipolmoment           0.000000      0.000000      0.066945 electrons x Angstroem
 Tr[quadrupol]    -12894.239229

 energy correction for charged system         0.000000 eV
 dipol+quadrupol energy correction           -0.000146 eV
 added-field ion interaction          2.733922 eV  (added to PSCEN)


 Broyden mixing:
  rms(total) = 0.30438E+00    rms(broyden)= 0.30438E+00
  rms(prec ) = 0.39315E+00
  weight for this iteration     100.00

[...]
    FORHAR:  cpu time    0.0138: real time    0.0138
    MIXING:  cpu time    0.0014: real time    0.0014
    OFIELD:  cpu time    0.0000: real time    0.0000

 ---------------------------------------------------------------------------------------------

         DFTD3 V3.0 Rev 1        
 Edisp (eV)  -34.51835

 E6    (eV) :   -12.9756
 E8    (eV) :   -21.5427
 % E8        : 62.41
    FORVDW:  cpu time    0.1828: real time    0.1981

  FORCE on cell =-STRESS in cart. coord.  units (eV):
  Direction    XX          YY          ZZ          XY          YZ          ZX
  --------------------------------------------------------------------------------------
  Alpha Z  1437.36368  1437.36368  1437.36368
  Ewald  280854.64341281021.21471************     0.06239     0.07209   -79.37651
  Hartree291593.43321291724.45854************     0.01125     0.00873   -25.76866
  E(xc)   -2890.02888 -2889.70216 -2905.48089     0.00044     0.00042    -0.40942
  Local  ************************592348.05420    -0.05995    -0.06263    92.25090
  n-local   239.48203   206.55329   232.78500     0.00645     0.01080    -4.35437
  augment  3359.33458  3374.83370  3416.77472    -0.00629    -0.00828     5.57387
  Kinetic  9516.26978  9498.22730  9676.14506    -0.01162    -0.01453    10.84222
  Fock        0.00000     0.00000     0.00000     0.00000     0.00000     0.00000
  vdW       -43.51570   -42.63313   -30.06510    -0.00046     0.00009     0.54804
  -------------------------------------------------------------------------------------
  Total     -98.90194  -115.06203   -12.17331     0.00221     0.00669    -0.69394
  in kB     -56.98632   -66.29761    -7.01414     0.00127     0.00385    -0.39984
  external pressure =      -43.43 kB  Pullay stress =        0.00 kB


 VOLUME and BASIS-vectors are now :
 -----------------------------------------------------------------------------
  energy-cutoff  :      450.00
  volume of cell :     2780.64
      direct lattice vectors                 reciprocal lattice vectors
     9.717792020  0.000000000  0.000000000     0.102904034  0.000000000  0.000000000
     0.000000000 11.445562474  0.000000000     0.000000000  0.087370105  0.000000000
     0.000000000  0.000000000 25.000000000     0.000000000  0.000000000  0.040000000

  length of vectors
     9.717792020 11.445562474 25.000000000     0.102904034  0.087370105  0.040000000


 FORCES acting on ions
    electron-ion (+dipol)            ewald-force                    non-local-force                 convergence-correction
 -----------------------------------------------------------------------------------------------
   -.732E+00 0.636E+00 0.252E+04   0.699E+00 -.635E+00 -.252E+04   0.556E-01 -.301E-02 -.136E+01   0.984E-03 0.481E-02 -.285E-02
   -.457E+01 -.309E+01 0.892E+03   0.464E+01 0.310E+01 -.891E+03   0.523E-01 0.990E-01 -.100E+01   -.348E-02 0.856E-02 0.514E-02
   -.349E+00 0.715E+01 -.779E+03   0.476E+00 -.720E+01 0.779E+03   -.134E+00 0.426E-01 0.765E+00   -.245E-02 0.714E-02 0.130E-01
   -.153E+01 0.116E+01 0.252E+04   0.152E+01 -.122E+01 -.252E+04   0.627E-02 0.527E-02 -.137E+01   -.111E-02 0.491E-02 -.979E-03
   -.108E+01 0.464E+01 0.902E+03   0.112E+01 -.459E+01 -.901E+03   -.382E-01 -.471E-01 -.116E+01   -.130E-02 0.707E-02 0.735E-02
   0.853E+01 0.277E+02 -.798E+03   -.807E+01 -.269E+02 0.798E+03   -.471E+00 -.829E+00 -.364E+00   -.298E-03 0.806E-02 0.120E-01
   -.151E+00 0.119E+02 -.247E+04   0.181E+00 -.120E+02 0.247E+04   -.373E-01 0.149E+00 0.149E+01   0.534E-03 0.433E-02 0.465E-02
   0.289E+02 0.389E+02 -.244E+04   -.293E+02 -.392E+02 0.244E+04   0.381E+00 0.272E+00 0.171E+01   -.364E-02 0.335E-02 0.378E-02
   -.256E+00 0.766E+00 0.252E+04   0.311E+00 -.766E+00 -.252E+04   0.219E-01 0.122E-01 -.133E+01   -.158E-02 0.127E-02 0.972E-03
   -.369E+01 0.713E+01 0.902E+03   0.372E+01 -.723E+01 -.901E+03   0.788E-01 0.325E-01 -.889E+00   0.580E-03 0.324E-02 0.495E-02
   0.760E+01 0.114E+02 -.760E+03   -.748E+01 -.115E+02 0.760E+03   -.124E+00 0.533E-01 0.643E+00   -.426E-02 0.106E-02 0.991E-02
   -.142E+01 0.669E-02 0.253E+04   0.132E+01 -.380E-02 -.252E+04   0.381E-01 -.632E-04 -.133E+01   0.126E-02 -.274E-02 0.424E-03
   -.546E+00 0.201E-01 0.906E+03   0.463E+00 -.159E-01 -.905E+03   0.622E-01 -.140E-03 -.118E+01   -.189E-02 -.424E-02 0.829E-02
   0.357E+01 0.153E-01 -.754E+03   -.356E+01 -.117E-01 0.753E+03   -.123E-01 0.272E-03 0.668E+00   0.202E-02 -.415E-02 0.850E-02
   -.150E+01 0.126E+02 -.246E+04   0.142E+01 -.129E+02 0.246E+04   0.680E-01 0.303E+00 0.145E+01   -.641E-03 0.104E-02 -.106E-02
   0.693E+02 0.351E-01 -.237E+04   -.706E+02 -.316E-01 0.237E+04   0.139E+01 -.947E-03 0.225E+01   -.284E-02 -.278E-02 0.270E-02
   -.256E+00 -.757E+00 0.252E+04   0.311E+00 0.760E+00 -.252E+04   0.218E-01 -.123E-01 -.133E+01   -.143E-02 -.517E-02 -.106E-02
   -.368E+01 -.709E+01 0.902E+03   0.372E+01 0.720E+01 -.901E+03   0.785E-01 -.335E-01 -.889E+00   0.496E-03 -.909E-02 0.402E-02
   0.759E+01 -.114E+02 -.760E+03   -.747E+01 0.114E+02 0.760E+03   -.124E+00 -.541E-01 0.643E+00   -.416E-02 -.697E-02 0.109E-01
   -.153E+01 -.116E+01 0.252E+04   0.152E+01 0.122E+01 -.252E+04   0.629E-02 -.537E-02 -.137E+01   -.111E-02 -.485E-02 -.372E-02
   -.108E+01 -.464E+01 0.902E+03   0.112E+01 0.459E+01 -.901E+03   -.384E-01 0.468E-01 -.116E+01   -.996E-03 -.703E-02 0.588E-02
   0.851E+01 -.277E+02 -.798E+03   -.805E+01 0.269E+02 0.798E+03   -.469E+00 0.829E+00 -.362E+00   -.453E-03 -.824E-02 0.135E-01
   -.148E+01 -.126E+02 -.246E+04   0.140E+01 0.129E+02 0.246E+04   0.678E-01 -.303E+00 0.145E+01   -.664E-03 -.498E-02 0.102E-02
   0.288E+02 -.389E+02 -.244E+04   -.292E+02 0.392E+02 0.244E+04   0.381E+00 -.270E+00 0.171E+01   -.348E-02 -.341E-02 0.666E-02
   -.733E+00 -.646E+00 0.252E+04   0.700E+00 0.641E+00 -.252E+04   0.556E-01 0.297E-02 -.136E+01   0.114E-02 -.901E-03 -.488E-02
   -.458E+01 0.306E+01 0.892E+03   0.464E+01 -.309E+01 -.891E+03   0.524E-01 -.993E-01 -.100E+01   -.354E-02 -.271E-02 0.418E-02
   -.367E+00 -.719E+01 -.779E+03   0.495E+00 0.724E+01 0.779E+03   -.134E+00 -.410E-01 0.764E+00   -.233E-02 -.115E-02 0.138E-01
   -.156E+01 -.647E-02 0.252E+04   0.134E+01 0.378E-02 -.252E+04   0.145E+00 -.667E-05 -.129E+01   -.341E-02 0.268E-02 -.509E-02
   -.105E+01 -.177E-01 0.897E+03   0.118E+01 0.138E-01 -.897E+03   -.324E-01 -.276E-03 -.112E+01   -.355E-03 0.419E-02 0.461E-02
   0.316E+01 -.119E-01 -.774E+03   -.321E+01 0.787E-02 0.773E+03   0.463E-01 -.237E-03 0.844E+00   -.212E-02 0.421E-02 0.141E-01
   -.136E+00 -.119E+02 -.247E+04   0.166E+00 0.121E+02 0.247E+04   -.378E-01 -.150E+00 0.148E+01   0.485E-03 -.220E-03 0.678E-02
   0.103E+02 -.631E-01 -.247E+04   -.102E+02 0.590E-01 0.247E+04   -.543E-01 0.347E-02 0.151E+01   -.276E-02 0.289E-02 0.685E-02
   -.510E+00 0.352E+00 0.252E+04   0.420E+00 -.389E+00 -.252E+04   0.724E-01 0.106E-01 -.133E+01   -.688E-03 0.766E-02 -.433E-02
   0.165E+01 0.160E+01 0.898E+03   -.165E+01 -.158E+01 -.898E+03   -.431E-01 -.260E-01 -.109E+01   0.316E-02 0.999E-02 0.611E-02
   -.979E+00 0.827E+01 -.779E+03   0.894E+00 -.824E+01 0.778E+03   0.801E-01 -.503E-01 0.653E+00   0.315E-02 0.877E-02 0.133E-01
   0.853E-01 0.684E+00 0.252E+04   -.737E-01 -.683E+00 -.252E+04   0.351E-01 -.790E-02 -.136E+01   0.768E-03 0.771E-02 -.790E-03
   0.283E+01 0.279E+01 0.897E+03   -.287E+01 -.278E+01 -.896E+03   -.510E-01 0.576E-01 -.874E+00   0.143E-02 0.117E-01 0.507E-02
   -.799E+00 0.853E+01 -.775E+03   0.758E+00 -.854E+01 0.774E+03   0.332E-01 -.507E-02 0.727E+00   0.190E-02 0.762E-02 0.120E-01
   0.445E+00 0.297E+02 -.245E+04   -.430E+00 -.302E+02 0.245E+04   -.220E-01 0.455E+00 0.157E+01   0.687E-03 0.519E-02 0.663E-02
   -.261E+02 0.395E+02 -.244E+04   0.266E+02 -.398E+02 0.244E+04   -.492E+00 0.265E+00 0.170E+01   0.390E-02 0.495E-02 0.298E-02
   -.944E+00 0.943E+00 0.252E+04   0.886E+00 -.966E+00 -.252E+04   0.741E-01 0.526E-03 -.137E+01   0.194E-02 0.434E-02 0.161E-02
   0.505E+01 0.223E+01 0.899E+03   -.513E+01 -.224E+01 -.899E+03   -.894E-01 -.702E-02 -.981E+00   -.698E-03 0.425E-02 0.704E-02
   -.142E+02 0.107E+02 -.773E+03   0.137E+02 -.107E+02 0.773E+03   0.469E+00 -.959E-02 0.199E+00   0.268E-02 0.293E-02 0.946E-02
   0.338E-01 0.695E-02 0.252E+04   -.258E-01 -.408E-02 -.252E+04   0.335E-01 -.192E-04 -.132E+01   -.191E-02 -.287E-02 0.186E-02
   -.309E+01 0.188E-01 0.902E+03   0.310E+01 -.145E-01 -.901E+03   0.350E-02 -.353E-03 -.835E+00   0.194E-02 -.436E-02 0.303E-02
   -.296E+01 0.383E-01 -.759E+03   0.286E+01 -.335E-01 0.759E+03   0.119E+00 -.916E-03 0.898E+00   0.397E-03 -.433E-02 0.119E-01
   0.177E+01 0.134E+03 -.226E+04   -.175E+01 -.135E+03 0.226E+04   -.452E-01 0.828E+00 0.507E+00   0.146E-02 0.375E-02 0.890E-02
   -.686E+02 0.476E-02 -.237E+04   0.703E+02 -.220E-02 0.237E+04   -.175E+01 -.237E-04 0.234E+01   0.380E-02 -.282E-02 0.189E-02
   -.944E+00 -.933E+00 0.252E+04   0.886E+00 0.961E+00 -.252E+04   0.740E-01 -.645E-03 -.137E+01   0.185E-02 -.831E-02 -.434E-03
   0.505E+01 -.221E+01 0.899E+03   -.513E+01 0.222E+01 -.899E+03   -.895E-01 0.724E-02 -.981E+00   -.576E-03 -.105E-01 0.602E-02
   -.142E+02 -.107E+02 -.773E+03   0.137E+02 0.107E+02 0.773E+03   0.470E+00 0.976E-02 0.198E+00   0.240E-02 -.898E-02 0.104E-01
   0.856E-01 -.683E+00 0.252E+04   -.741E-01 0.683E+00 -.252E+04   0.350E-01 0.787E-02 -.136E+01   0.865E-03 -.769E-02 -.378E-02
   0.283E+01 -.278E+01 0.897E+03   -.288E+01 0.277E+01 -.896E+03   -.512E-01 -.582E-01 -.875E+00   0.115E-02 -.117E-01 0.372E-02
   -.800E+00 -.851E+01 -.775E+03   0.759E+00 0.851E+01 0.774E+03   0.367E-01 0.167E-02 0.728E+00   0.201E-02 -.758E-02 0.135E-01
   0.176E+01 -.134E+03 -.226E+04   -.174E+01 0.135E+03 0.226E+04   -.457E-01 -.826E+00 0.509E+00   0.144E-02 -.747E-02 0.110E-01
   -.261E+02 -.394E+02 -.244E+04   0.266E+02 0.397E+02 0.244E+04   -.493E+00 -.266E+00 0.170E+01   0.366E-02 -.487E-02 0.594E-02
   -.509E+00 -.362E+00 0.252E+04   0.420E+00 0.395E+00 -.252E+04   0.723E-01 -.106E-01 -.133E+01   -.824E-03 -.369E-02 -.633E-02
   0.165E+01 -.162E+01 0.898E+03   -.165E+01 0.160E+01 -.898E+03   -.432E-01 0.257E-01 -.109E+01   0.331E-02 -.378E-02 0.506E-02
   -.946E+00 -.829E+01 -.778E+03   0.860E+00 0.825E+01 0.778E+03   0.799E-01 0.498E-01 0.654E+00   0.302E-02 -.266E-02 0.144E-01
   -.109E+00 -.757E-02 0.252E+04   0.437E-01 0.474E-02 -.252E+04   0.620E-01 -.598E-06 -.135E+01   0.329E-02 0.285E-02 -.617E-02
   0.143E+01 -.233E-01 0.897E+03   -.142E+01 0.191E-01 -.897E+03   0.160E-01 0.136E-03 -.109E+01   0.604E-03 0.433E-02 0.558E-02
   -.119E+01 -.552E-01 -.785E+03   0.114E+01 0.508E-01 0.784E+03   0.369E-01 0.483E-03 0.687E+00   0.312E-02 0.434E-02 0.150E-01
   0.427E+00 -.297E+02 -.245E+04   -.414E+00 0.302E+02 0.245E+04   -.200E-01 -.452E+00 0.157E+01   0.812E-03 -.156E-02 0.854E-02
   -.768E+01 -.518E-01 -.247E+04   0.781E+01 0.482E-01 0.247E+04   -.140E+00 0.107E-02 0.155E+01   0.480E-02 0.281E-02 0.737E-02
   0.114E+01 0.214E+03 -.180E+04   -.915E+00 -.246E+03 0.182E+04   -.226E+00 0.318E+02 -.215E+02   0.447E-03 -.561E-03 -.579E-02
   0.116E+01 -.214E+03 -.180E+04   -.937E+00 0.246E+03 0.182E+04   -.221E+00 -.318E+02 -.215E+02   0.456E-03 -.831E-03 -.523E-02
 -----------------------------------------------------------------------------------------------
   0.633E+00 0.281E-02 0.476E+02   -.117E-11 0.540E-12 0.432E-11   -.710E+00 -.103E-02 -.479E+02   0.129E-01 -.114E-02 0.320E+00
 
 
 POSITION                                       TOTAL-FORCE (eV/Angst)
 -----------------------------------------------------------------------------------
      0.00000      0.00000      0.00000         0.020570      0.002568      0.342310
      3.23926      0.00000      2.29051         0.114603      0.122024     -0.252341
      1.62806     11.44398      4.45567        -0.005835     -0.003160      0.006788
      2.42945      1.43070      0.00000        -0.006548     -0.056992      0.342262
      0.80982      1.43070      2.29051         0.004139      0.012282     -0.390957
      4.07284      1.47010      4.52518        -0.002976     -0.013187     -0.003437
      0.00129     11.42506      6.69863        -0.001318     -0.002391      0.007974
      2.40257      1.40883      6.68888        -0.006539     -0.002194     -0.000320
      0.00000      2.86139      0.00000         0.071895      0.013971      0.265974
      3.23926      2.86139      2.29051         0.112097     -0.062170     -0.331170
      1.61679      2.85019      4.45121        -0.003860     -0.001804      0.005493
      2.42945      4.29209      0.00000        -0.068557      0.000080      0.330618
      0.80982      4.29209      2.29051        -0.023696     -0.000150     -0.392157
      4.04228      4.29193      4.47621         0.007138     -0.000276      0.000189
      9.71055      2.82348      6.69664        -0.006342     -0.004783      0.009202
      2.33644      4.29208      6.64070        -0.015578     -0.000254     -0.008282
      0.00000      5.72278      0.00000         0.071948     -0.013934      0.265902
      3.23926      5.72278      2.29051         0.111953      0.061345     -0.331283
      1.61671      5.73394      4.45120        -0.003842      0.001127      0.005299
      2.42945      7.15348      0.00000        -0.006554      0.057045      0.342066
      0.80982      7.15348      2.29051         0.003937     -0.012485     -0.391132
      4.07275      7.11375      4.52508        -0.001168      0.013325     -0.002360
      9.71047      5.76058      6.69669        -0.006429      0.004426      0.009240
      2.40247      7.17505      6.68891        -0.006966      0.003209     -0.000661
      0.00000      8.58417      0.00000         0.020610     -0.002545      0.342268
      3.23926      8.58417      2.29051         0.114659     -0.122191     -0.252458
      1.62806      8.58557      4.45566        -0.005519      0.004811      0.005200
      2.42945     10.01487      0.00000        -0.083160     -0.000033      0.106518
      0.80982     10.01487      2.29051         0.089926     -0.000045     -0.383256
      4.04862     10.01482      4.45437        -0.005041     -0.000045      0.005909
      0.00135      8.60450      6.69871        -0.001660      0.001835      0.008184
      2.42618     10.01462      6.70036        -0.011937      0.002212      0.002573
      4.85890      0.00000      0.00000        -0.020820     -0.018900      0.342860
      8.09816      0.00000      2.29051        -0.042205      0.002325     -0.393849
      6.47418     11.44355      4.46360         0.000324     -0.001629      0.004811
      7.28834      1.43070      0.00000         0.044955     -0.000168      0.322843
      5.66871      1.43070      2.29051        -0.096082      0.077823     -0.173599
      8.90703      1.42407      4.45502        -0.002672     -0.002755      0.005034
      4.85513     11.41150      6.70436        -0.003440     -0.006693     -0.000678
      7.31030      1.40169      6.68849         0.002267     -0.006836      0.003142
      4.85890      2.86139      0.00000         0.015160     -0.018340      0.338725
      8.09816      2.86139      2.29051        -0.170167     -0.006670     -0.322098
      6.46045      2.86279      4.49657         0.005009     -0.001064     -0.000785
      7.28834      4.29209      0.00000         0.037241     -0.000031      0.342493
      5.66871      4.29209      2.29051         0.016558     -0.000396     -0.177297
      8.92013      4.29215      4.44653         0.010981     -0.000423      0.001159
      4.86251      2.84559      6.78126        -0.011097     -0.002881     -0.010943
      7.38306      4.29196      6.65785        -0.003034     -0.000283     -0.006036
      4.85890      5.72278      0.00000         0.015202      0.018445      0.338711
      8.09816      5.72278      2.29051        -0.170348      0.006682     -0.322453
      6.46040      5.72119      4.49654         0.005102      0.000779     -0.000640
      7.28834      7.15348      0.00000         0.045017      0.000196      0.322834
      5.66871      7.15348      2.29051        -0.096192     -0.078279     -0.174204
      8.90696      7.16013      4.45501         0.000551     -0.000465      0.005832
      4.86265      5.73827      6.78116        -0.010723      0.003657     -0.010248
      7.31028      7.18239      6.68836         0.001931      0.005849      0.003494
      4.85890      8.58417      0.00000        -0.020878      0.018930      0.342758
      8.09816      8.58417      2.29051        -0.042221     -0.002283     -0.394715
      6.47411      8.58607      4.46346        -0.000228      0.001379      0.005134
      7.28834     10.01487      0.00000        -0.002765      0.000010      0.340538
      5.66871     10.01487      2.29051         0.022905      0.000270     -0.367322
      8.90984     10.01475      4.45666        -0.004129      0.000447      0.008474
      4.85499      8.61796      6.70419        -0.002364      0.008951      0.000454
      7.29522     10.01462      6.69752         0.000777      0.000231     -0.005882
      4.86238      3.60547      8.64348         0.002671      0.000842     -0.016341
      4.86233      4.97849      8.64344         0.002762     -0.000342     -0.016364
 -----------------------------------------------------------------------------------
    total drift:                               -0.064574      0.000636      0.012848


--------------------------------------------------------------------------------------------------------



  FREE ENERGIE OF THE ION-ELECTRON SYSTEM (eV)
  ---------------------------------------------------
  free  energy   TOTEN  =      -413.96907546 eV

  energy  without entropy=     -413.26040461  energy(sigma->0) =     -413.61474003
 
 d Force = 0.2992732E-03[ 0.241E-03, 0.358E-03]  d Energy = 0.3022075E-03-0.293E-05
 d Force = 0.9064208E+01[ 0.907E+01, 0.906E+01]  d Ewald  = 0.9064209E+01-0.115E-05


--------------------------------------------------------------------------------------------------------


    POTLOK:  cpu time    0.0431: real time    0.0431


--------------------------------------------------------------------------------------------------------


 stress matrix after NEB project (eV)
    -98.90194      0.00221     -0.69394
      0.00221   -115.06203      0.00669
     -0.69394      0.00669    -12.17331
  FORCES: max atom, RMS     0.017644    0.007312
  FORCE total and by dimension    0.059404    0.016364
  Stress total and by dimension  152.217008  115.062032
 Quasi-Newton relaxation of ions (Broydens 2nd method)
  g(Force)  = 0.681E-04   g(Stress)= 0.000E+00

 retain information from N=  2 steps
 eigenvalues of (default step * inverse Hessian matrix)
  average eigenvalue of G=   7.8340
 eigenvalue spectrum of G is  7.8340  7.8340


--------------------------------------------------------------------------------------------------------


  
 reached required accuracy - stopping structural energy minimisation
     LOOP+:  cpu time   64.0760: real time   64.3806
    4ORBIT:  cpu time    0.0000: real time    0.0000

 total amount of memory used by VASP MPI-rank0    75741. kBytes
=======================================================================

   base      :      30000. kBytes
   nonlr-proj:       5290. kBytes
   fftplans  :       3940. kBytes
   grid      :       6141. kBytes
   one-center:        139. kBytes
   wavefun   :      30231. kBytes
 
  
  
 General timing and accounting informations for this job:
 ========================================================
  
                  Total CPU time used (sec):     1332.700
                            User time (sec):     1162.628
                          System time (sec):      170.072
                         Elapsed time (sec):     1338.090
  
                   Maximum memory used (kb):     1002808.
                   Average memory used (kb):           0.
  
                          Minor page faults:       261067
                          Major page faults:            0
                 Voluntary context switches:     85077938
