 vasp.5.4.4.18Apr17-6-g9f103f2a35 (build Nov 06 2023 00:46:14) complex          
  
 executed on             LinuxIFC date 2025.07.24  17:19:55
 running on   64 total cores
 distrk:  each k-point on   64 cores,    1 groups
 distr:  one band on NCORES_PER_BAND=   8 cores,    8 groups


--------------------------------------------------------------------------------------------------------


 INCAR:
 POTCAR:    PAW_PBE Pt 04Feb2005                  
 POTCAR:    PAW_PBE O 08Apr2002                   
 POTCAR:    PAW_PBE Pt 04Feb2005                  
   VRHFIN =Pt: s1d9                                                             
   LEXCH  = PE                                                                  
   EATOM  =   729.1176 eV,   53.5886 Ry                                         
                                                                                
   TITEL  = PAW_PBE Pt 04Feb2005                                                
   LULTRA =        F    use ultrasoft PP ?                                      
   IUNSCR =        1    unscreen: 0-lin 1-nonlin 2-no                           
   RPACOR =    2.330    partial core radius                                     
   POMASS =  195.080; ZVAL   =   10.000    mass and valenz                      
   RCORE  =    2.600    outmost cutoff radius                                   
   RWIGS  =    2.750; RWIGS  =    1.455    wigner-seitz radius (au A)           
   ENMAX  =  230.283; ENMIN  =  172.712 eV                                      
   ICORE  =        3    local potential                                         
   LCOR   =        T    correct aug charges                                     
   LPAW   =        T    paw PP                                                  
   EAUG   =  358.966                                                            
   DEXC   =    0.000                                                            
   RMAX   =    2.658    core radius for proj-oper                               
   RAUG   =    1.300    factor for augmentation sphere                          
   RDEP   =    2.761    radius for radial grids                                 
   RDEPT  =    2.203    core radius for aug-charge                              
                                                                                
   Atomic configuration                                                         
   16 entries                                                                   
     n  l   j            E        occ.                                          
     1  0  0.50    -78401.1885   2.0000                                         
     2  0  0.50    -13770.7750   2.0000                                         
     2  1  1.50    -11931.0468   6.0000                                         
     3  0  0.50     -3234.7234   2.0000                                         
     3  1  1.50     -2699.2216   6.0000                                         
     3  2  2.50     -2119.5714  10.0000                                         
     4  0  0.50      -695.1528   2.0000                                         
     4  1  1.50      -519.6034   6.0000                                         
     4  2  2.50      -306.6786  10.0000                                         
     4  3  3.50       -70.1041  14.0000                                         
     5  0  0.50      -101.7747   2.0000                                         
     5  1  1.50       -55.9873   6.0000                                         
     5  2  2.50        -6.1423   9.0000                                         
     6  0  0.50        -5.6573   1.0000                                         
     6  1  1.50        -6.8029   0.0000                                         
     5  3  2.50        -1.3606   0.0000                                         
   Description                                                                  
     l       E           TYP  RCUT    TYP  RCUT                                 
     2     -6.1423404     23  2.500                                             
     2     -7.5029230     23  2.500                                             
     0     -5.6573207     23  2.500                                             
     0      0.7416693     23  2.500                                             
     1     -2.7211652     23  2.600                                             
     1     20.4087390     23  2.600                                             
     3     -1.3605826     23  2.500                                             
  local pseudopotential read in
  partial core-charges read in
  partial kinetic energy density read in
  atomic valenz-charges read in
  non local Contribution for L=           2  read in
    real space projection operators read in
  non local Contribution for L=           2  read in
    real space projection operators read in
  non local Contribution for L=           0  read in
    real space projection operators read in
  non local Contribution for L=           0  read in
    real space projection operators read in
  non local Contribution for L=           1  read in
    real space projection operators read in
  non local Contribution for L=           1  read in
    real space projection operators read in
    PAW grid and wavefunctions read in
 
   number of l-projection  operators is LMAX  =           6
   number of lm-projection operators is LMMAX =          18
 
 POTCAR:    PAW_PBE O 08Apr2002                   
   VRHFIN =O: s2p4                                                              
   LEXCH  = PE                                                                  
   EATOM  =   432.3788 eV,   31.7789 Ry                                         
                                                                                
   TITEL  = PAW_PBE O 08Apr2002                                                 
   LULTRA =        F    use ultrasoft PP ?                                      
   IUNSCR =        1    unscreen: 0-lin 1-nonlin 2-no                           
   RPACOR =    1.200    partial core radius                                     
   POMASS =   16.000; ZVAL   =    6.000    mass and valenz                      
   RCORE  =    1.520    outmost cutoff radius                                   
   RWIGS  =    1.550; RWIGS  =    0.820    wigner-seitz radius (au A)           
   ENMAX  =  400.000; ENMIN  =  300.000 eV                                      
   ICORE  =        2    local potential                                         
   LCOR   =        T    correct aug charges                                     
   LPAW   =        T    paw PP                                                  
   EAUG   =  605.392                                                            
   DEXC   =    0.000                                                            
   RMAX   =    1.553    core radius for proj-oper                               
   RAUG   =    1.300    factor for augmentation sphere                          
   RDEP   =    1.550    radius for radial grids                                 
   RDEPT  =    1.329    core radius for aug-charge                              
                                                                                
   Atomic configuration                                                         
    4 entries                                                                   
     n  l   j            E        occ.                                          
     1  0  0.50      -514.6923   2.0000                                         
     2  0  0.50       -23.9615   2.0000                                         
     2  1  0.50        -9.0305   4.0000                                         
     3  2  1.50        -9.5241   0.0000                                         
   Description                                                                  
     l       E           TYP  RCUT    TYP  RCUT                                 
     0    -23.9615318     23  1.200                                             
     0     -9.5240782     23  1.200                                             
     1     -9.0304911     23  1.520                                             
     1      8.1634956     23  1.520                                             
     2     -9.5240782      7  1.500                                             
  local pseudopotential read in
  partial core-charges read in
  partial kinetic energy density read in
  kinetic energy density of atom read in
  atomic valenz-charges read in
  non local Contribution for L=           0  read in
    real space projection operators read in
  non local Contribution for L=           0  read in
    real space projection operators read in
  non local Contribution for L=           1  read in
    real space projection operators read in
  non local Contribution for L=           1  read in
    real space projection operators read in
    PAW grid and wavefunctions read in
 
   number of l-projection  operators is LMAX  =           4
   number of lm-projection operators is LMMAX =           8
 
 Optimization of the real space projectors (new method)

 maximal supplied QI-value         = 14.36
 optimisation between [QCUT,QGAM] = [ 10.77, 21.69] = [ 32.49,131.70] Ry 
 Optimized for a Real-space Cutoff    1.46 Angstroem

   l    n(q)    QCUT    max X(q) W(low)/X(q) W(high)/X(q)  e(spline) 
   2      9    10.771    66.195    0.13E-03    0.31E-03    0.27E-06
   2      9    10.771    64.643    0.13E-03    0.32E-03    0.28E-06
   0     10    10.771    95.520    0.41E-04    0.13E-03    0.15E-06
   0     10    10.771    63.403    0.40E-04    0.12E-03    0.14E-06
   1      9    10.771    19.961    0.42E-03    0.19E-03    0.28E-06
   1      9    10.771    13.289    0.35E-03    0.16E-03    0.23E-06
 Optimization of the real space projectors (new method)

 maximal supplied QI-value         = 24.76
 optimisation between [QCUT,QGAM] = [ 10.64, 21.54] = [ 31.73,129.89] Ry 
 Optimized for a Real-space Cutoff    1.23 Angstroem

   l    n(q)    QCUT    max X(q) W(low)/X(q) W(high)/X(q)  e(spline) 
   0      8    10.645    20.381    0.38E-03    0.60E-03    0.15E-06
   0      8    10.645    15.268    0.40E-03    0.65E-03    0.17E-06
   1      7    10.645     5.964    0.30E-03    0.63E-03    0.18E-06
   1      7    10.645     5.382    0.24E-03    0.53E-03    0.16E-06
  PAW_PBE Pt 04Feb2005                  :
 energy of atom  1       EATOM= -729.1176
 kinetic energy error for atom=    0.0051 (will be added to EATOM!!)
  PAW_PBE O 08Apr2002                   :
 energy of atom  2       EATOM= -432.3788
 kinetic energy error for atom=    0.0389 (will be added to EATOM!!)
 
 
 POSCAR: Pt  O                                   
  positions in cartesian coordinates
  No initial velocities read in
 exchange correlation table for  LEXCH =        8
   RHO(1)=    0.500       N(1)  =     2000
   RHO(2)=  100.500       N(2)  =     4000

 VTST: version 3.2, (02/03/18)

 CHAIN: initializing optimizer
 
 OPT: Using VASP QUASI-newton optimizer
 CHAIN: Read ICHAIN            0
 
 POSCAR: Pt  O                                   
  positions in cartesian coordinates
  No initial velocities read in
 


--------------------------------------------------------------------------------------------------------


 ion  position               nearest neighbor table
   1  0.000  0.000  0.000-  34 2.81  29 2.82   5 2.82   4 2.82  28 2.82  36 2.82  60 2.82  25 2.86
                             9 2.86
   2  0.333  0.000  0.092-  30 2.76   3 2.77   6 2.79  33 2.81   4 2.82  28 2.82   5 2.82  29 2.82
                            37 2.82  61 2.82  10 2.86  26 2.86
   3  0.167  0.002  0.182-   8 2.73   2 2.77   5 2.77  32 2.80  29 2.80   6 2.80   7 2.81  30 2.82
                            38 2.82  62 2.82  11 2.86  27 2.91
   4  0.250  0.125  0.000-   5 2.81   2 2.82  10 2.82   9 2.82   1 2.82  33 2.82  41 2.82  12 2.86
                            28 2.86
   5  0.083  0.125  0.092-  38 2.74   3 2.77   4 2.81   9 2.82   1 2.82  10 2.82  34 2.82   2 2.82
                            42 2.82  11 2.82  29 2.86  13 2.86
   6  0.417  0.126  0.182-  37 2.77  10 2.78   2 2.79  43 2.80   3 2.80  11 2.80  39 2.81  35 2.83
                            14 2.85  47 2.86   8 2.86  30 2.87
   7  0.996  0.998  0.272-   8 2.73  40 2.75  64 2.76  62 2.80   3 2.81  31 2.82  32 2.82  38 2.83
                            15 2.85
   8  0.243  0.111  0.274-  65 2.04  32 2.71   3 2.73   7 2.73  39 2.85   6 2.86  15 2.88  11 2.88
                            16 3.02  47 3.06
   9  0.000  0.250  0.000-  42 2.81  13 2.82   5 2.82   4 2.82  36 2.82  12 2.82  44 2.82  17 2.86
                             1 2.86
  10  0.333  0.250  0.092-  11 2.78   6 2.78  41 2.81  14 2.81   4 2.82  12 2.82   5 2.82  37 2.82
                            13 2.82  45 2.82  18 2.86   2 2.86
  11  0.169  0.252  0.183-  10 2.78  15 2.78  14 2.79  16 2.80  13 2.80   6 2.80  19 2.82   5 2.82
                            46 2.84  38 2.85   3 2.86   8 2.88
  12  0.250  0.375  0.000-  13 2.81  10 2.82  18 2.82  17 2.82   9 2.82  41 2.82  49 2.82   4 2.86
                            20 2.86
  13  0.083  0.375  0.092-  46 2.74  19 2.80  11 2.80  12 2.81   9 2.82  17 2.82  10 2.82  42 2.82
                            18 2.82  50 2.82  21 2.86   5 2.86
  14  0.417  0.375  0.183-  19 2.79  11 2.79  45 2.80  51 2.80  43 2.80  18 2.81  10 2.81   6 2.85
                            22 2.85  55 2.87  47 2.87  16 2.93
  15  0.994  0.247  0.271-  16 2.75  48 2.75  40 2.76  38 2.76  11 2.78  46 2.80   7 2.85   8 2.88
                            23 2.93
  16  0.233  0.375  0.276-  66 2.09  65 2.09  15 2.75  23 2.75  11 2.80  19 2.80  14 2.93  24 3.02
                             8 3.02  55 3.10  47 3.10
  17  0.000  0.500  0.000-  50 2.81  21 2.82  13 2.82  12 2.82  44 2.82  20 2.82  52 2.82  25 2.86
                             9 2.86
  18  0.333  0.500  0.092-  19 2.78  22 2.78  49 2.81  14 2.81  12 2.82  20 2.82  13 2.82  45 2.82
                            21 2.82  53 2.82  26 2.86  10 2.86
  19  0.169  0.498  0.183-  18 2.78  23 2.78  14 2.79  16 2.80  13 2.80  22 2.80  11 2.82  21 2.82
                            46 2.84  54 2.85  27 2.86  24 2.88
  20  0.250  0.625  0.000-  21 2.81  18 2.82  26 2.82  25 2.82  17 2.82  49 2.82  57 2.82  12 2.86
                            28 2.86
  21  0.083  0.625  0.092-  54 2.74  27 2.77  20 2.81  17 2.82  25 2.82  18 2.82  50 2.82  26 2.82
                            58 2.82  19 2.82  29 2.86  13 2.86
  22  0.417  0.624  0.182-  53 2.77  18 2.78  26 2.79  51 2.80  27 2.80  19 2.80  63 2.81  59 2.83
                            14 2.85  55 2.86  24 2.86  30 2.87
  23  0.994  0.503  0.271-  16 2.75  48 2.75  56 2.76  54 2.76  19 2.78  46 2.80  31 2.85  24 2.88
                            15 2.93
  24  0.243  0.639  0.274-  66 2.04  32 2.71  27 2.73  31 2.73  63 2.85  22 2.86  23 2.88  19 2.88
                            16 3.02  55 3.06
  25  0.000  0.750  0.000-  58 2.81  29 2.82  21 2.82  20 2.82  52 2.82  28 2.82  60 2.82  17 2.86
                             1 2.86
  26  0.333  0.750  0.092-  30 2.76  27 2.77  22 2.79  57 2.81  20 2.82  28 2.82  21 2.82  53 2.82
                            29 2.82  61 2.82   2 2.86  18 2.86
  27  0.167  0.748  0.182-  24 2.73  26 2.77  21 2.77  32 2.80  29 2.80  22 2.80  31 2.81  30 2.82
                            54 2.82  62 2.82  19 2.86   3 2.91
  28  0.250  0.875  0.000-  29 2.81  26 2.82   2 2.82   1 2.82  25 2.82  33 2.82  57 2.82  20 2.86
                             4 2.86
  29  0.083  0.875  0.092-  62 2.73   3 2.80  27 2.80  28 2.81  25 2.82   1 2.82  26 2.82  34 2.82
                            58 2.82   2 2.82  21 2.86   5 2.86
  30  0.416  0.875  0.180-  61 2.75  26 2.76   2 2.76  63 2.79  39 2.79  32 2.81   3 2.82  27 2.82
                            35 2.83  59 2.83  22 2.87   6 2.87
  31  0.996  0.752  0.272-  24 2.73  56 2.75  64 2.76  62 2.80  27 2.81   7 2.82  32 2.82  54 2.83
                            23 2.85
  32  0.247  0.875  0.272-  24 2.71   8 2.71   3 2.80  27 2.80  30 2.81  31 2.82   7 2.82  63 2.85
                            39 2.85
  33  0.500  0.000  0.000-   2 2.81  37 2.82  61 2.82  36 2.82   4 2.82  60 2.82  28 2.82  41 2.86
                            57 2.86
  34  0.833  0.000  0.092-  35 2.74  62 2.76  38 2.76   1 2.81  60 2.82  36 2.82   5 2.82  29 2.82
                            61 2.82  37 2.82  58 2.86  42 2.86
  35  0.667  1.000  0.180-  34 2.74  61 2.76  37 2.76  39 2.77  40 2.80  64 2.82  38 2.82  30 2.83
                             6 2.83  62 2.83  59 2.85  43 2.86
  36  0.750  0.125  0.000-  37 2.81  34 2.82  42 2.82   1 2.82   9 2.82  41 2.82  33 2.82  44 2.86
                            60 2.86
  37  0.583  0.125  0.092-  35 2.76   6 2.77  43 2.79  36 2.81  41 2.82  33 2.82   2 2.82  34 2.82
                            42 2.82  10 2.82  45 2.86  61 2.86
  38  0.917  0.126  0.180-   5 2.74  42 2.75  15 2.76  34 2.76  40 2.80   3 2.82  35 2.82   7 2.83
                            43 2.83  11 2.85  46 2.85  62 2.87
  39  0.503  0.996  0.271-  35 2.77  63 2.77  64 2.79  30 2.79   6 2.81  40 2.81  32 2.85   8 2.85
                            47 2.87
  40  0.752  0.121  0.272-  47 2.73   7 2.75  15 2.76  38 2.80  35 2.80  39 2.81  64 2.81  43 2.82
                            48 2.91
  41  0.500  0.250  0.000-  10 2.81  37 2.82  45 2.82  36 2.82   4 2.82  44 2.82  12 2.82  33 2.86
                            49 2.86
  42  0.833  0.250  0.092-  46 2.75  38 2.75  43 2.79   9 2.81  44 2.82  36 2.82   5 2.82  37 2.82
                            45 2.82  13 2.82  34 2.86  50 2.86
  43  0.665  0.250  0.182-  47 2.73  37 2.79  45 2.79  42 2.79  48 2.80   6 2.80  14 2.80  40 2.82
                            38 2.83  46 2.83  35 2.86  51 2.87
  44  0.750  0.375  0.000-  45 2.81  42 2.82  50 2.82   9 2.82  17 2.82  49 2.82  41 2.82  36 2.86
                            52 2.86
  45  0.583  0.375  0.092-  43 2.79  51 2.79  14 2.80  44 2.81  49 2.82  41 2.82  10 2.82  42 2.82
                            50 2.82  18 2.82  37 2.86  53 2.86
  46  0.916  0.375  0.180-  13 2.74  50 2.75  42 2.75  48 2.78  23 2.80  15 2.80  43 2.83  51 2.83
                            19 2.84  11 2.84  54 2.85  38 2.85
  47  0.514  0.247  0.274-  65 2.03  43 2.73  40 2.73  48 2.75   6 2.86  14 2.87  39 2.87  55 2.93
                             8 3.06  16 3.10
  48  0.754  0.375  0.272-  47 2.75  55 2.75  23 2.75  15 2.75  46 2.78  43 2.80  51 2.80  56 2.91
                            40 2.91
  49  0.500  0.500  0.000-  18 2.81  45 2.82  53 2.82  44 2.82  12 2.82  52 2.82  20 2.82  41 2.86
                            57 2.86
  50  0.833  0.500  0.092-  46 2.75  54 2.75  51 2.79  17 2.81  52 2.82  44 2.82  13 2.82  45 2.82
                            53 2.82  21 2.82  42 2.86  58 2.86
  51  0.665  0.500  0.182-  55 2.73  53 2.79  45 2.79  50 2.79  48 2.80  22 2.80  14 2.80  56 2.82
                            54 2.83  46 2.83  59 2.86  43 2.87
  52  0.750  0.625  0.000-  53 2.81  50 2.82  58 2.82  17 2.82  25 2.82  57 2.82  49 2.82  44 2.86
                            60 2.86
  53  0.583  0.625  0.092-  59 2.76  22 2.77  51 2.79  52 2.81  57 2.82  49 2.82  18 2.82  50 2.82
                            58 2.82  26 2.82  45 2.86  61 2.86
  54  0.917  0.624  0.180-  21 2.74  50 2.75  23 2.76  58 2.76  56 2.80  27 2.82  59 2.82  31 2.83
                            51 2.83  19 2.85  46 2.85  62 2.87
  55  0.514  0.503  0.274-  66 2.03  51 2.73  56 2.73  48 2.75  22 2.86  14 2.87  63 2.87  47 2.93
                            24 3.06  16 3.10
  56  0.752  0.629  0.272-  55 2.73  31 2.75  23 2.76  54 2.80  59 2.80  63 2.81  64 2.81  51 2.82
                            48 2.91
  57  0.500  0.750  0.000-  26 2.81  53 2.82  61 2.82  52 2.82  20 2.82  60 2.82  28 2.82  33 2.86
                            49 2.86
  58  0.833  0.750  0.092-  59 2.74  62 2.76  54 2.76  25 2.81  60 2.82  52 2.82  21 2.82  53 2.82
                            61 2.82  29 2.82  50 2.86  34 2.86
  59  0.667  0.750  0.180-  58 2.74  61 2.76  53 2.76  63 2.77  56 2.80  64 2.82  54 2.82  30 2.83
                            22 2.83  62 2.83  35 2.85  51 2.86
  60  0.750  0.875  0.000-  61 2.81  58 2.82  34 2.82   1 2.82  57 2.82  25 2.82  33 2.82  52 2.86
                            36 2.86
  61  0.583  0.875  0.092-  30 2.75  59 2.76  35 2.76  60 2.81  33 2.82  57 2.82  26 2.82  58 2.82
                            34 2.82   2 2.82  37 2.86  53 2.86
  62  0.919  0.875  0.180-  29 2.73  58 2.76  34 2.76  31 2.80   7 2.80  64 2.81   3 2.82  27 2.82
                            59 2.83  35 2.83  54 2.87  38 2.87
  63  0.503  0.754  0.271-  59 2.77  39 2.77  64 2.79  30 2.79  22 2.81  56 2.81  32 2.85  24 2.85
                            55 2.87
  64  0.752  0.875  0.272-   7 2.76  31 2.76  39 2.79  63 2.79  62 2.81  56 2.81  40 2.81  35 2.82
                            59 2.82
  65  0.335  0.241  0.316-  47 2.03   8 2.04  16 2.09
  66  0.335  0.509  0.316-  55 2.03  24 2.04  16 2.09
 

IMPORTANT INFORMATION: All symmetrisations will be switched off!
NOSYMM: (Re-)initialisation of all symmetry stuff for point group C_1.

 
 
 KPOINTS: K-Spacing Value to Generate K-Mesh: 0.03

Automatic generation of k-mesh.
Space group operators:
 irot       det(A)        alpha          n_x          n_y          n_z        tau_x        tau_y        tau_z
    1     1.000000     0.000000     1.000000     0.000000     0.000000     0.000000     0.000000     0.000000
 
 Subroutine IBZKPT returns following result:
 ===========================================
 
 Found      5 irreducible k-points:
 
 Following reciprocal coordinates:
            Coordinates               Weight
  0.000000  0.000000  0.000000      1.000000
  0.333333  0.000000  0.000000      2.000000
  0.000000  0.333333  0.000000      2.000000
  0.333333  0.333333  0.000000      2.000000
 -0.333333  0.333333  0.000000      2.000000
 
 Following cartesian coordinates:
            Coordinates               Weight
  0.000000  0.000000  0.000000      1.000000
  0.034301  0.000000  0.000000      2.000000
  0.000000  0.029123  0.000000      2.000000
  0.034301  0.029123  0.000000      2.000000
 -0.034301  0.029123  0.000000      2.000000
 


--------------------------------------------------------------------------------------------------------




 Dimension of arrays:
   k-points           NKPTS =      5   k-points in BZ     NKDIM =      5   number of bands    NBANDS=    392
   number of dos      NEDOS =    301   number of ions     NIONS =     66
   non local maximal  LDIM  =      6   non local SUM 2l+1 LMDIM =     18
   total plane-waves  NPLWV = 420000
   max r-space proj   IRMAX =   2039   max aug-charges    IRDMAX=   9347
   dimension x,y,z NGX =    50 NGY =   60 NGZ =  140
   dimension x,y,z NGXF=   100 NGYF=  120 NGZF=  280
   support grid    NGXF=   100 NGYF=  120 NGZF=  280
   ions per type =              64   2
   NGX,Y,Z   is equivalent  to a cutoff of   8.55,  8.71,  9.31 a.u.
   NGXF,Y,Z  is equivalent  to a cutoff of  17.11, 17.43, 18.62 a.u.

 SYSTEM =  Pt111 O2 adsorption system              
 POSCAR =  Pt  O                                   

 Startparameter for this run:
   NWRITE =      2    write-flag & timer
   PREC   = normal    normal or accurate (medium, high low for compatibility)
   ISTART =      0    job   : 0-new  1-cont  2-samecut
   ICHARG =      1    charge: 1-file 2-atom 10-const
   ISPIN  =      1    spin polarized calculation?
   LNONCOLLINEAR =      F non collinear calculations
   LSORBIT =      F    spin-orbit coupling
   INIWAV =      1    electr: 0-lowe 1-rand  2-diag
   LASPH  =      F    aspherical Exc in radial PAW
   METAGGA=      F    non-selfconsistent MetaGGA calc.

 Electronic Relaxation 1
   ENCUT  =  450.0 eV  33.07 Ry    5.75 a.u.  16.81 19.80 43.24*2*pi/ulx,y,z
   ENINI  =  450.0     initial cutoff
   ENAUG  =  605.4 eV  augmentation charge cutoff
   NELM   =     60;   NELMIN=  2; NELMDL= -5     # of ELM steps 
   EDIFF  = 0.1E-05   stopping-criterion for ELM
   LREAL  =      T    real-space projection
   NLSPLINE    = F    spline interpolate recip. space projectors
   LCOMPAT=      F    compatible to vasp.4.4
   GGA_COMPAT  = T    GGA compatible to vasp.4.4-vasp.4.6
   LMAXPAW     = -100 max onsite density
   LMAXMIX     =    2 max onsite mixed and CHGCAR
   VOSKOWN=      0    Vosko Wilk Nusair interpolation
   ROPT   =   -0.00050  -0.00050
 Ionic relaxation
   EDIFFG = -.2E-01   stopping-criterion for IOM
   NSW    =    200    number of steps for IOM
   NBLOCK =      1;   KBLOCK =    200    inner block; outer block 
   IBRION =      1    ionic relax: 0-MD 1-quasi-New 2-CG
   NFREE  =      0    steps in history (QN), initial steepest desc. (CG)
   ISIF   =      2    stress and relaxation
   IWAVPR =     11    prediction:  0-non 1-charg 2-wave 3-comb
   ISYM   =      0    0-nonsym 1-usesym 2-fastsym
   LCORR  =      T    Harris-Foulkes like correction to forces

   POTIM  = 0.2000    time-step for ionic-motion
   TEIN   =    0.0    initial temperature
   TEBEG  =    0.0;   TEEND  =   0.0 temperature during run
   SMASS  =  -3.00    Nose mass-parameter (am)
   estimated Nose-frequenzy (Omega)   =  0.10E-29 period in steps =****** mass=  -0.216E-26a.u.
   SCALEE = 1.0000    scale energy and forces
   NPACO  =    256;   APACO  = 16.0  distance and # of slots for P.C.
   PSTRESS=    0.0 pullay stress

  Mass of Ions in am
   POMASS = 195.08 16.00
  Ionic Valenz
   ZVAL   =  10.00  6.00
  Atomic Wigner-Seitz radii
   RWIGS  =  -1.00 -1.00
  virtual crystal weights 
   VCA    =   1.00  1.00
   NELECT =     652.0000    total number of electrons
   NUPDOWN=      -1.0000    fix difference up-down

 DOS related values:
   EMIN   =  10.00;   EMAX   =-10.00  energy-range for DOS
   EFERMI =   0.00
   ISMEAR =     0;   SIGMA  =   0.10  broadening in eV -4-tet -1-fermi 0-gaus

 Electronic relaxation 2 (details)
   IALGO  =     68    algorithm
   LDIAG  =      T    sub-space diagonalisation (order eigenvalues)
   LSUBROT=      F    optimize rotation matrix (better conditioning)
   TURBO    =      0    0=normal 1=particle mesh
   IRESTART =      0    0=no restart 2=restart with 2 vectors
   NREBOOT  =      0    no. of reboots
   NMIN     =      0    reboot dimension
   EREF     =   0.00    reference energy to select bands
   IMIX   =      4    mixing-type and parameters
     AMIX     =   0.40;   BMIX     =  1.00
     AMIX_MAG =   1.60;   BMIX_MAG =  1.00
     AMIN     =   0.10
     WC   =   100.;   INIMIX=   1;  MIXPRE=   1;  MAXMIX= -45

 Intra band minimization:
   WEIMIN = 0.0010     energy-eigenvalue tresh-hold
   EBREAK =  0.64E-09  absolut break condition
   DEPER  =   0.30     relativ break condition  

   TIME   =   0.40     timestep for ELM

  volume/ion in A,a.u.               =      42.13       284.31
  Fermi-wavevector in a.u.,A,eV,Ry     =   1.009506  1.907691 13.865743  1.019103
  Thomas-Fermi vector in A             =   2.142439
 
 Write flags
   LWAVE        =      F    write WAVECAR
   LDOWNSAMPLE  =      F    k-point downsampling of WAVECAR
   LCHARG       =      F    write CHGCAR
   LVTOT        =      F    write LOCPOT, total local potential
   LVHAR        =      F    write LOCPOT, Hartree potential only
   LELF         =      F    write electronic localiz. function (ELF)
   LORBIT       =      0    0 simple, 1 ext, 2 COOP (PROOUT), +10 PAW based schemes


 Dipole corrections
   LMONO  =      F    monopole corrections only (constant potential shift)
   LDIPOL =      T    correct potential (dipole corrections)
   IDIPOL =      3    1-x, 2-y, 3-z, 4-all directions 
   EPSILON=  1.0000000 bulk dielectric constant

 Exchange correlation treatment:
   GGA     =    PE    GGA type
   LEXCH   =     8    internal setting for exchange type
   VOSKOWN=      0    Vosko Wilk Nusair interpolation
   LHFCALC =     F    Hartree Fock is set to
   LHFONE  =     F    Hartree Fock one center treatment
   AEXX    =    0.0000 exact exchange contribution

 Linear response parameters
   LEPSILON=     F    determine dielectric tensor
   LRPA    =     F    only Hartree local field effects (RPA)
   LNABLA  =     F    use nabla operator in PAW spheres
   LVEL    =     F    velocity operator in full k-point grid
   LINTERFAST=   F  fast interpolation
   KINTER  =     0    interpolate to denser k-point grid
   CSHIFT  =0.1000    complex shift for real part using Kramers Kronig
   OMEGAMAX=  -1.0    maximum frequency
   DEG_THRESHOLD= 0.2000000E-02 threshold for treating states as degnerate
   RTIME   =   -0.100 relaxation time in fs
  (WPLASMAI=    0.000 imaginary part of plasma frequency in eV, 0.658/RTIME)
   DFIELD  = 0.0000000 0.0000000 0.0000000 field for delta impulse in time
 
 Orbital magnetization related:
   ORBITALMAG=     F  switch on orbital magnetization
   LCHIMAG   =     F  perturbation theory with respect to B field
   DQ        =  0.001000  dq finite difference perturbation B field
   LLRAUG    =     F  two centre corrections for induced B field



--------------------------------------------------------------------------------------------------------


 quasi-Newton-method for relaxation of ions
   using selective dynamics as specified on POSCAR
   WARNING: If single coordinates had been selected the selection of coordinates
            is made according to the corresponding   d i r e c t   coordinates!
            Don't support selection of single cartesian coordinates -- sorry ...
  !
 charge density and potential will be updated during run
 non-spin polarized calculation
 RMM-DIIS sequential band-by-band and
  variant of blocked Davidson during initial phase
 perform sub-space diagonalisation
    before iterative eigenvector-optimisation
 modified Broyden-mixing scheme, WC =      100.0
 initial mixing is a Kerker type mixing with AMIX =  0.4000 and BMIX =      1.0000
 Hartree-type preconditioning will be used
 using additional bands           66
 real space projection scheme for non local part
 use partial core corrections
 calculate Harris-corrections to forces 
   (improved forces if not selfconsistent)
 use gradient corrections 
 use of overlap-Matrix (Vanderbilt PP)
 Gauss-broadening in eV      SIGMA  =   0.10


--------------------------------------------------------------------------------------------------------


  energy-cutoff  :      450.00
  volume of cell :     2780.64
      direct lattice vectors                 reciprocal lattice vectors
     9.717792020  0.000000000  0.000000000     0.102904034  0.000000000  0.000000000
     0.000000000 11.445562474  0.000000000     0.000000000  0.087370105  0.000000000
     0.000000000  0.000000000 25.000000000     0.000000000  0.000000000  0.040000000

  length of vectors
     9.717792020 11.445562474 25.000000000     0.102904034  0.087370105  0.040000000


 
 k-points in units of 2pi/SCALE and weight: K-Spacing Value to Generate K-Mesh: 0.03
   0.00000000  0.00000000  0.00000000       0.111
   0.03430134  0.00000000  0.00000000       0.222
   0.00000000  0.02912337  0.00000000       0.222
   0.03430134  0.02912337  0.00000000       0.222
  -0.03430134  0.02912337  0.00000000       0.222
 
 k-points in reciprocal lattice and weights: K-Spacing Value to Generate K-Mesh: 0.03
   0.00000000  0.00000000  0.00000000       0.111
   0.33333333  0.00000000  0.00000000       0.222
   0.00000000  0.33333333  0.00000000       0.222
   0.33333333  0.33333333  0.00000000       0.222
  -0.33333333  0.33333333  0.00000000       0.222
 
 position of ions in fractional coordinates (direct lattice) 
   0.00000000  0.00000000  0.00000000
   0.33333333  0.00000000  0.09162022
   0.16748537  0.00213362  0.18151477
   0.25000000  0.12500000  0.00000000
   0.08333333  0.12500000  0.09162022
   0.41653574  0.12566852  0.18160038
   0.99574855  0.99798572  0.27201467
   0.24289373  0.11141593  0.27397058
   0.00000000  0.25000000  0.00000000
   0.33333333  0.25000000  0.09162022
   0.16912238  0.25170324  0.18259116
   0.25000000  0.37500000  0.00000000
   0.08333333  0.37500000  0.09162022
   0.41695724  0.37500114  0.18287354
   0.99373654  0.24714827  0.27063019
   0.23318593  0.37500058  0.27600449
   0.00000000  0.50000000  0.00000000
   0.33333333  0.50000000  0.09162022
   0.16912292  0.49829793  0.18259048
   0.25000000  0.62500000  0.00000000
   0.08333333  0.62500000  0.09162022
   0.41653596  0.62434450  0.18160064
   0.99373658  0.50285319  0.27062911
   0.24289712  0.63858229  0.27396906
   0.00000000  0.75000000  0.00000000
   0.33333333  0.75000000  0.09162022
   0.16748641  0.74786326  0.18151399
   0.25000000  0.87500000  0.00000000
   0.08333333  0.87500000  0.09162022
   0.41570563  0.87499994  0.18035091
   0.99574984  0.75201191  0.27201374
   0.24742795  0.87499807  0.27178924
   0.50000000  0.00000000  0.00000000
   0.83333333  0.00000000  0.09162022
   0.66701213  0.99964088  0.18036078
   0.75000000  0.12500000  0.00000000
   0.58333333  0.12500000  0.09162022
   0.91661482  0.12556493  0.18022143
   0.50308866  0.99621440  0.27096215
   0.75226416  0.12088935  0.27204214
   0.50000000  0.25000000  0.00000000
   0.83333333  0.25000000  0.09162022
   0.66463796  0.24956601  0.18205707
   0.75000000  0.37500000  0.00000000
   0.58333333  0.37500000  0.09162022
   0.91603801  0.37500104  0.18008786
   0.51377795  0.24704806  0.27412032
   0.75358610  0.37500111  0.27156855
   0.50000000  0.50000000  0.00000000
   0.83333333  0.50000000  0.09162022
   0.66463749  0.50043544  0.18205682
   0.75000000  0.62500000  0.00000000
   0.58333333  0.62500000  0.09162022
   0.91661495  0.62443395  0.18022050
   0.51377612  0.50295440  0.27411902
   0.75226416  0.62911080  0.27204068
   0.50000000  0.75000000  0.00000000
   0.83333333  0.75000000  0.09162022
   0.66701268  0.75035818  0.18036017
   0.75000000  0.87500000  0.00000000
   0.58333333  0.87500000  0.09162022
   0.91876303  0.87499848  0.18004326
   0.50308838  0.75378321  0.27096013
   0.75176025  0.87499872  0.27176592
   0.33534844  0.24133379  0.31643374
   0.33534845  0.50866656  0.31643384
 
 position of ions in cartesian coordinates  (Angst):
   0.00000000  0.00000000  0.00000000
   3.23926402  0.00000000  2.29050552
   1.62758795  0.02442042  4.53786929
   2.42944800  1.43069531  0.00000000
   0.80981602  1.43069531  2.29050552
   4.04780764  1.43834692  4.54000950
   9.67647730 11.42250793  6.80036677
   2.36039074  1.27521798  6.84926446
   0.00000000  2.86139062  0.00000000
   3.23926402  2.86139062  2.29050552
   1.64349609  2.88088519  4.56477900
   2.42944800  4.29208593  0.00000000
   0.80981602  4.29208593  2.29050552
   4.05190375  4.29209893  4.57183855
   9.65692505  2.82875099  6.76575466
   2.26605234  4.29209259  6.90011223
   0.00000000  5.72278124  0.00000000
   3.23926402  5.72278124  2.29050552
   1.64350133  5.70330005  4.56476206
   2.42944800  7.15347655  0.00000000
   0.80981602  7.15347655  2.29050552
   4.04780986  7.14597398  4.54001589
   9.65692544  5.75543759  6.76572783
   2.36042368  7.30893355  6.84922652
   0.00000000  8.58417186  0.00000000
   3.23926402  8.58417186  2.29050552
   1.62759810  8.55971569  4.53784976
   2.42944800 10.01486716  0.00000000
   0.80981602 10.01486716  2.29050552
   4.03974088 10.01486649  4.50877266
   9.67648986  8.60719929  6.80034352
   2.40445338 10.01484508  6.79473089
   4.85889601  0.00000000  0.00000000
   8.09816003  0.00000000  2.29050552
   6.48188518 11.44145212  4.50901962
   7.28834401  1.43069531  0.00000000
   5.66871203  1.43069531  2.29050552
   8.90747221  1.43716129  4.50553578
   4.88891096 11.40223415  6.77405368
   7.31034664  1.38364662  6.80105339
   4.85889601  2.86139062  0.00000000
   8.09816003  2.86139062  2.29050552
   6.45881351  2.85642331  4.55142683
   7.28834401  4.29208593  0.00000000
   5.66871203  4.29208593  2.29050552
   8.90186685  4.29209785  4.50219655
   4.99278731  2.82760397  6.85300808
   7.32319304  4.29209859  6.78921368
   4.85889601  5.72278124  0.00000000
   8.09816003  5.72278124  2.29050552
   6.45880890  5.72776507  4.55142046
   7.28834401  7.15347655  0.00000000
   5.66871203  7.15347655  2.29050552
   8.90747348  7.14699781  4.50551244
   4.99276948  5.75659605  6.85297557
   7.31034667  7.20052691  6.80101700
   4.85889601  8.58417186  0.00000000
   8.09816003  8.58417186  2.29050552
   6.48189049  8.58827138  4.50900429
   7.28834401 10.01486716  0.00000000
   5.66871203 10.01486716  2.29050552
   8.92834803 10.01484975  4.50108144
   4.88890827  8.62747277  6.77400330
   7.30544976 10.01485253  6.79414811
   3.25884642  2.76220101  7.91084357
   3.25884651  5.82197490  7.91084588
 


--------------------------------------------------------------------------------------------------------


 k-point  1 :   0.0000 0.0000 0.0000  plane waves:   60269
 k-point  2 :   0.3333 0.0000 0.0000  plane waves:   60312
 k-point  3 :   0.0000 0.3333 0.0000  plane waves:   60294
 k-point  4 :   0.3333 0.3333 0.0000  plane waves:   60243
 k-point  5 :  -0.3333 0.3333 0.0000  plane waves:   60243

 maximum and minimum number of plane-waves per node :      7560     7504

 maximum number of plane-waves:     60312
 maximum index in each direction: 
   IXMAX=   17   IYMAX=   19   IZMAX=   43
   IXMIN=  -17   IYMIN=  -20   IZMIN=  -43


 real space projection operators:
  total allocation   :      17509.84 KBytes
  max/ min on nodes  :       2478.69       2074.19


 parallel 3D FFT for wavefunctions:
    minimum data exchange during FFTs selected (reduces bandwidth)
 parallel 3D FFT for charge:
    minimum data exchange during FFTs selected (reduces bandwidth)


 total amount of memory used by VASP MPI-rank0    75757. kBytes
=======================================================================

   base      :      30000. kBytes
   nonlr-proj:       5306. kBytes
   fftplans  :       3940. kBytes
   grid      :       6141. kBytes
   one-center:        139. kBytes
   wavefun   :      30231. kBytes
 
     INWAV:  cpu time    0.0000: real time    0.0001
 Broyden mixing: mesh for mixing (old mesh)
   NGX = 33   NGY = 39   NGZ = 87
  (NGX  =100   NGY  =120   NGZ  =280)
  gives a total of 111969 points

 initial charge density was supplied:
 charge density of overlapping atoms calculated
 number of electron     652.0000000 magnetization 
 keeping initial charge density in first step


--------------------------------------------------------------------------------------------------------


 Maximum index for non-local projection operator          384
 Maximum index for augmentation-charges          539 (set IRDMAX)


--------------------------------------------------------------------------------------------------------


 First call to EWALD:  gamma=   0.126
 Maximum number of real-space cells 4x 3x 2
 Maximum number of reciprocal cells 2x 2x 5

    FEWALD:  cpu time    0.0030: real time    0.0038


--------------------------------------- Iteration      1(   1)  ---------------------------------------


    POTLOK:  cpu time    0.0324: real time    0.1478
    SETDIJ:  cpu time    0.0040: real time    0.0040
     EDDAV:  cpu time    8.7680: real time    8.7824
       DOS:  cpu time    0.0017: real time    0.0017
    --------------------------------------------
      LOOP:  cpu time    8.8061: real time    8.9359

 eigenvalue-minimisations  :  3920
 total energy-change (2. order) : 0.4295280E+04  (-0.2658868E+05)
 number of electron     652.0000000 magnetization 
 augmentation part      652.0000000 magnetization 

 DIPCOR: dipole corrections for dipol
 direction  3 min pos   173,
 dipolmoment           0.000000      0.000000     -0.000230 electrons x Angstroem
 Tr[quadrupol]    -12684.532984

 energy correction for charged system         0.000000 eV
 dipol+quadrupol energy correction           -0.000000 eV
 added-field ion interaction          0.006184 eV  (added to PSCEN)


 Free energy of the ion-electron system (eV)
  ---------------------------------------------------
  alpha Z        PSCENC =      1437.36986846
  Ewald energy   TEWEN  =    243318.54112751
  -Hartree energ DENC   =   -293206.56837017
  -exchange      EXHF   =         0.00000000
  -V(xc)+E(xc)   XCENC  =       268.54717682
  PAW double counting   =     45245.00522118   -43438.47517393
  entropy T*S    EENTRO =        -0.17471489
  eigenvalues    EBANDS =      3143.15770107
  atomic energy  EATOM  =     47527.87699037
  Solvation  Ediel_sol  =         0.00000000
  ---------------------------------------------------
  free energy    TOTEN  =      4295.27982643 eV

  energy without entropy =     4295.45454132  energy(sigma->0) =     4295.36718387


--------------------------------------------------------------------------------------------------------




--------------------------------------- Iteration      1(   2)  ---------------------------------------


     EDDAV:  cpu time   10.0470: real time   10.0609
       DOS:  cpu time    0.0014: real time    0.0014
    --------------------------------------------
      LOOP:  cpu time   10.0484: real time   10.0623

 eigenvalue-minimisations  :  4680
 total energy-change (2. order) :-0.4352258E+04  (-0.4010403E+04)
 number of electron     652.0000000 magnetization 
 augmentation part      652.0000000 magnetization 

 DIPCOR: dipole corrections for dipol
 direction  3 min pos   173,
 dipolmoment           0.000000      0.000000     -0.000230 electrons x Angstroem
 Tr[quadrupol]    -12684.532984

 energy correction for charged system         0.000000 eV
 dipol+quadrupol energy correction           -0.000000 eV
 added-field ion interaction          0.006184 eV  (added to PSCEN)


 Free energy of the ion-electron system (eV)
  ---------------------------------------------------
  alpha Z        PSCENC =      1437.36986846
  Ewald energy   TEWEN  =    243318.54112751
  -Hartree energ DENC   =   -293206.56837017
  -exchange      EXHF   =         0.00000000
  -V(xc)+E(xc)   XCENC  =       268.54717682
  PAW double counting   =     45245.00522118   -43438.47517393
  entropy T*S    EENTRO =        -0.26408235
  eigenvalues    EBANDS =     -1209.01046469
  atomic energy  EATOM  =     47527.87699037
  Solvation  Ediel_sol  =         0.00000000
  ---------------------------------------------------
  free energy    TOTEN  =       -56.97770679 eV

  energy without entropy =      -56.71362444  energy(sigma->0) =      -56.84566561


--------------------------------------------------------------------------------------------------------




--------------------------------------- Iteration      1(   3)  ---------------------------------------


     EDDAV:  cpu time    9.9758: real time    9.9925
       DOS:  cpu time    0.0019: real time    0.0019
    --------------------------------------------
      LOOP:  cpu time    9.9777: real time    9.9944

 eigenvalue-minimisations  :  4664
 total energy-change (2. order) :-0.3349207E+03  (-0.3024864E+03)
 number of electron     652.0000000 magnetization 
 augmentation part      652.0000000 magnetization 

 DIPCOR: dipole corrections for dipol
 direction  3 min pos   173,
 dipolmoment           0.000000      0.000000     -0.000230 electrons x Angstroem
 Tr[quadrupol]    -12684.532984

 energy correction for charged system         0.000000 eV
 dipol+quadrupol energy correction           -0.000000 eV
 added-field ion interaction          0.006184 eV  (added to PSCEN)


 Free energy of the ion-electron system (eV)
  ---------------------------------------------------
  alpha Z        PSCENC =      1437.36986846
  Ewald energy   TEWEN  =    243318.54112751
  -Hartree energ DENC   =   -293206.56837017
  -exchange      EXHF   =         0.00000000
  -V(xc)+E(xc)   XCENC  =       268.54717682
  PAW double counting   =     45245.00522118   -43438.47517393
  entropy T*S    EENTRO =        -0.54263553
  eigenvalues    EBANDS =     -1543.65266045
  atomic energy  EATOM  =     47527.87699037
  Solvation  Ediel_sol  =         0.00000000
  ---------------------------------------------------
  free energy    TOTEN  =      -391.89845573 eV

  energy without entropy =     -391.35582020  energy(sigma->0) =     -391.62713797


--------------------------------------------------------------------------------------------------------




--------------------------------------- Iteration      1(   4)  ---------------------------------------


     EDDAV:  cpu time   10.7293: real time   10.7441
       DOS:  cpu time    0.0014: real time    0.0014
    --------------------------------------------
      LOOP:  cpu time   10.7307: real time   10.7454

 eigenvalue-minimisations  :  5096
 total energy-change (2. order) :-0.1682646E+02  (-0.1574737E+02)
 number of electron     652.0000000 magnetization 
 augmentation part      652.0000000 magnetization 

 DIPCOR: dipole corrections for dipol
 direction  3 min pos   173,
 dipolmoment           0.000000      0.000000     -0.000230 electrons x Angstroem
 Tr[quadrupol]    -12684.532984

 energy correction for charged system         0.000000 eV
 dipol+quadrupol energy correction           -0.000000 eV
 added-field ion interaction          0.006184 eV  (added to PSCEN)


 Free energy of the ion-electron system (eV)
  ---------------------------------------------------
  alpha Z        PSCENC =      1437.36986846
  Ewald energy   TEWEN  =    243318.54112751
  -Hartree energ DENC   =   -293206.56837017
  -exchange      EXHF   =         0.00000000
  -V(xc)+E(xc)   XCENC  =       268.54717682
  PAW double counting   =     45245.00522118   -43438.47517393
  entropy T*S    EENTRO =        -0.58961000
  eigenvalues    EBANDS =     -1560.43214641
  atomic energy  EATOM  =     47527.87699037
  Solvation  Ediel_sol  =         0.00000000
  ---------------------------------------------------
  free energy    TOTEN  =      -408.72491616 eV

  energy without entropy =     -408.13530616  energy(sigma->0) =     -408.43011116


--------------------------------------------------------------------------------------------------------




--------------------------------------- Iteration      1(   5)  ---------------------------------------


     EDDAV:  cpu time   10.3308: real time   10.3458
       DOS:  cpu time    0.0016: real time    0.0016
    CHARGE:  cpu time    0.1485: real time    0.1488
    MIXING:  cpu time    0.0015: real time    0.0018
    --------------------------------------------
      LOOP:  cpu time   10.4824: real time   10.4981

 eigenvalue-minimisations  :  4880
 total energy-change (2. order) :-0.4434240E+00  (-0.4393348E+00)
 number of electron     651.9999803 magnetization 
 augmentation part      187.7848662 magnetization 

 DIPCOR: dipole corrections for dipol
 direction  3 min pos   173,
 dipolmoment           0.000000      0.000000     -0.000230 electrons x Angstroem
 Tr[quadrupol]    -12684.532984

 energy correction for charged system         0.000000 eV
 dipol+quadrupol energy correction           -0.000000 eV
 added-field ion interaction          0.006184 eV  (added to PSCEN)


 Broyden mixing:
  rms(total) = 0.82462E+01    rms(broyden)= 0.82461E+01
  rms(prec ) = 0.83511E+01
  weight for this iteration     100.00

 Free energy of the ion-electron system (eV)
  ---------------------------------------------------
  alpha Z        PSCENC =      1437.36986846
  Ewald energy   TEWEN  =    243318.54112751
  -Hartree energ DENC   =   -293206.56837017
  -exchange      EXHF   =         0.00000000
  -V(xc)+E(xc)   XCENC  =       268.54717682
  PAW double counting   =     45245.00522118   -43438.47517393
  entropy T*S    EENTRO =        -0.59113428
  eigenvalues    EBANDS =     -1560.87404610
  atomic energy  EATOM  =     47527.87699037
  Solvation  Ediel_sol  =         0.00000000
  ---------------------------------------------------
  free energy    TOTEN  =      -409.16834014 eV

  energy without entropy =     -408.57720585  energy(sigma->0) =     -408.87277300


--------------------------------------------------------------------------------------------------------




--------------------------------------- Iteration      1(   6)  ---------------------------------------


    POTLOK:  cpu time    0.0303: real time    0.0395
    SETDIJ:  cpu time    0.0036: real time    0.0036
    EDDIAG:  cpu time    1.2620: real time    1.2633
  RMM-DIIS:  cpu time    3.4569: real time    3.4636
    ORTHCH:  cpu time    0.6215: real time    0.6219
       DOS:  cpu time    0.0009: real time    0.0009
    CHARGE:  cpu time    0.1476: real time    0.1478
    MIXING:  cpu time    0.0012: real time    0.0015
    --------------------------------------------
      LOOP:  cpu time    5.5241: real time    5.5420

 eigenvalue-minimisations  :  3937
 total energy-change (2. order) : 0.1080702E+02  (-0.8428202E+01)
 number of electron     651.9999804 magnetization 
 augmentation part      198.3244826 magnetization 

 DIPCOR: dipole corrections for dipol
 direction  3 min pos   190,
 dipolmoment           0.000000      0.000000     -0.428747 electrons x Angstroem
 Tr[quadrupol]    -12674.557640

 energy correction for charged system         0.000000 eV
 dipol+quadrupol energy correction           -0.005982 eV
 added-field ion interaction        -16.084191 eV  (added to PSCEN)


 Broyden mixing:
  rms(total) = 0.64628E+01    rms(broyden)= 0.64625E+01
  rms(prec ) = 0.72912E+01
  weight for this iteration     100.00

 eigenvalues of (default mixing * dielectric matrix)
  average eigenvalue GAMMA=   0.9954
  0.9954

 Free energy of the ion-electron system (eV)
  ---------------------------------------------------
  alpha Z        PSCENC =      1421.27351149
  Ewald energy   TEWEN  =    243318.54112751
  -Hartree energ DENC   =   -292482.11780575
  -exchange      EXHF   =         0.00000000
  -V(xc)+E(xc)   XCENC  =       253.62445673
  PAW double counting   =     49675.86079539   -47961.33506851
  entropy T*S    EENTRO =        -0.48373298
  eigenvalues    EBANDS =     -2151.60159515
  atomic energy  EATOM  =     47527.87699037
  Solvation  Ediel_sol  =         0.00000000
  ---------------------------------------------------
  free energy    TOTEN  =      -398.36132091 eV

  energy without entropy =     -397.87758792  energy(sigma->0) =     -398.11945442


--------------------------------------------------------------------------------------------------------




--------------------------------------- Iteration      1(   7)  ---------------------------------------


    POTLOK:  cpu time    0.0299: real time    0.0394
    SETDIJ:  cpu time    0.0036: real time    0.0036
    EDDIAG:  cpu time    1.2589: real time    1.2604
  RMM-DIIS:  cpu time    3.9775: real time    3.9821
    ORTHCH:  cpu time    0.6151: real time    0.6155
       DOS:  cpu time    0.0009: real time    0.0009
    CHARGE:  cpu time    0.1462: real time    0.1465
    MIXING:  cpu time    0.0009: real time    0.0009
    --------------------------------------------
      LOOP:  cpu time    6.0330: real time    6.0494

 eigenvalue-minimisations  :  4421
 total energy-change (2. order) :-0.2711557E+03  (-0.3867389E+02)
 number of electron     651.9999805 magnetization 
 augmentation part      191.4186707 magnetization 

 DIPCOR: dipole corrections for dipol
 direction  3 min pos   184,
 dipolmoment           0.000000      0.000000      5.816209 electrons x Angstroem
 Tr[quadrupol]    -12696.191237

 energy correction for charged system         0.000000 eV
 dipol+quadrupol energy correction           -1.100890 eV
 added-field ion interaction         85.978704 eV  (added to PSCEN)


 Broyden mixing:
  rms(total) = 0.11019E+02    rms(broyden)= 0.11019E+02
  rms(prec ) = 0.15435E+02
  weight for this iteration     100.00

 eigenvalues of (default mixing * dielectric matrix)
  average eigenvalue GAMMA=   0.7957
  1.4383  0.1530

 Free energy of the ion-electron system (eV)
  ---------------------------------------------------
  alpha Z        PSCENC =      1522.24149802
  Ewald energy   TEWEN  =    243318.54112751
  -Hartree energ DENC   =   -292900.09773856
  -exchange      EXHF   =         0.00000000
  -V(xc)+E(xc)   XCENC  =       248.96383366
  PAW double counting   =     51857.99866216   -50167.42173916
  entropy T*S    EENTRO =        -0.34072489
  eigenvalues    EBANDS =     -2077.27897305
  atomic energy  EATOM  =     47527.87699037
  Solvation  Ediel_sol  =         0.00000000
  ---------------------------------------------------
  free energy    TOTEN  =      -669.51706394 eV

  energy without entropy =     -669.17633906  energy(sigma->0) =     -669.34670150


--------------------------------------------------------------------------------------------------------




--------------------------------------- Iteration      1(   8)  ---------------------------------------


    POTLOK:  cpu time    0.0287: real time    0.0332
    SETDIJ:  cpu time    0.0036: real time    0.0036
    EDDIAG:  cpu time    1.2628: real time    1.2650
  RMM-DIIS:  cpu time    3.4071: real time    3.4134
    ORTHCH:  cpu time    0.6159: real time    0.6162
       DOS:  cpu time    0.0008: real time    0.0008
    CHARGE:  cpu time    0.1479: real time    0.1481
    MIXING:  cpu time    0.0010: real time    0.0010
    --------------------------------------------
      LOOP:  cpu time    5.4678: real time    5.4814

 eigenvalue-minimisations  :  3920
 total energy-change (2. order) : 0.1675417E+03  (-0.1301767E+02)
 number of electron     651.9999810 magnetization 
 augmentation part      194.7250632 magnetization 

 DIPCOR: dipole corrections for dipol
 direction  3 min pos   183,
 dipolmoment           0.000000      0.000000     -0.504188 electrons x Angstroem
 Tr[quadrupol]    -12699.175974

 energy correction for charged system         0.000000 eV
 dipol+quadrupol energy correction           -0.008273 eV
 added-field ion interaction         -5.543031 eV  (added to PSCEN)


 Broyden mixing:
  rms(total) = 0.86832E+01    rms(broyden)= 0.86829E+01
  rms(prec ) = 0.10202E+02
  weight for this iteration     100.00

 eigenvalues of (default mixing * dielectric matrix)
  average eigenvalue GAMMA=   0.7887
  1.9779  0.1941  0.1941

 Free energy of the ion-electron system (eV)
  ---------------------------------------------------
  alpha Z        PSCENC =      1431.81238127
  Ewald energy   TEWEN  =    243318.54112751
  -Hartree energ DENC   =   -293022.72637571
  -exchange      EXHF   =         0.00000000
  -V(xc)+E(xc)   XCENC  =       244.61949820
  PAW double counting   =     53719.38925348   -52055.38497279
  entropy T*S    EENTRO =        -0.28713840
  eigenvalues    EBANDS =     -1665.81614577
  atomic energy  EATOM  =     47527.87699037
  Solvation  Ediel_sol  =         0.00000000
  ---------------------------------------------------
  free energy    TOTEN  =      -501.97538184 eV

  energy without entropy =     -501.68824344  energy(sigma->0) =     -501.83181264


--------------------------------------------------------------------------------------------------------




--------------------------------------- Iteration      1(   9)  ---------------------------------------


    POTLOK:  cpu time    0.0295: real time    0.0314
    SETDIJ:  cpu time    0.0035: real time    0.0035
    EDDIAG:  cpu time    1.2621: real time    1.2639
  RMM-DIIS:  cpu time    3.4516: real time    3.4553
    ORTHCH:  cpu time    0.6168: real time    0.6171
       DOS:  cpu time    0.0009: real time    0.0009
    CHARGE:  cpu time    0.1489: real time    0.1492
    MIXING:  cpu time    0.0010: real time    0.0010
    --------------------------------------------
      LOOP:  cpu time    5.5143: real time    5.5224

 eigenvalue-minimisations  :  3933
 total energy-change (2. order) : 0.7115068E+02  (-0.5745050E+01)
 number of electron     651.9999793 magnetization 
 augmentation part      199.6842923 magnetization 

 DIPCOR: dipole corrections for dipol
 direction  3 min pos   182,
 dipolmoment           0.000000      0.000000      1.418202 electrons x Angstroem
 Tr[quadrupol]    -12685.342398

 energy correction for charged system         0.000000 eV
 dipol+quadrupol energy correction           -0.065455 eV
 added-field ion interaction         10.218623 eV  (added to PSCEN)


 Broyden mixing:
  rms(total) = 0.50668E+01    rms(broyden)= 0.50667E+01
  rms(prec ) = 0.72182E+01
  weight for this iteration     100.00

 eigenvalues of (default mixing * dielectric matrix)
  average eigenvalue GAMMA=   0.7590
  1.9532  0.5912  0.3516  0.1399

 Free energy of the ion-electron system (eV)
  ---------------------------------------------------
  alpha Z        PSCENC =      1447.51685288
  Ewald energy   TEWEN  =    243318.54112751
  -Hartree energ DENC   =   -292499.26418681
  -exchange      EXHF   =         0.00000000
  -V(xc)+E(xc)   XCENC  =       241.90747655
  PAW double counting   =     56154.32385326   -54525.02426597
  entropy T*S    EENTRO =        -0.41386629
  eigenvalues    EBANDS =     -2096.28868327
  atomic energy  EATOM  =     47527.87699037
  Solvation  Ediel_sol  =         0.00000000
  ---------------------------------------------------
  free energy    TOTEN  =      -430.82470177 eV

  energy without entropy =     -430.41083548  energy(sigma->0) =     -430.61776863


--------------------------------------------------------------------------------------------------------




--------------------------------------- Iteration      1(  10)  ---------------------------------------


    POTLOK:  cpu time    0.0287: real time    0.0348
    SETDIJ:  cpu time    0.0036: real time    0.0036
    EDDIAG:  cpu time    1.2586: real time    1.2632
  RMM-DIIS:  cpu time    3.4427: real time    3.4464
    ORTHCH:  cpu time    0.6154: real time    0.6158
       DOS:  cpu time    0.0009: real time    0.0009
    CHARGE:  cpu time    0.1467: real time    0.1469
    MIXING:  cpu time    0.0011: real time    0.0011
    --------------------------------------------
      LOOP:  cpu time    5.4977: real time    5.5126

 eigenvalue-minimisations  :  3926
 total energy-change (2. order) : 0.1834525E+02  (-0.7145228E+01)
 number of electron     651.9999781 magnetization 
 augmentation part      201.2545821 magnetization 

 DIPCOR: dipole corrections for dipol
 direction  3 min pos   184,
 dipolmoment           0.000000      0.000000      0.271038 electrons x Angstroem
 Tr[quadrupol]    -12680.838372

 energy correction for charged system         0.000000 eV
 dipol+quadrupol energy correction           -0.002391 eV
 added-field ion interaction          4.006649 eV  (added to PSCEN)


 Broyden mixing:
  rms(total) = 0.52512E+01    rms(broyden)= 0.52511E+01
  rms(prec ) = 0.65386E+01
  weight for this iteration     100.00

 eigenvalues of (default mixing * dielectric matrix)
  average eigenvalue GAMMA=   0.6779
  2.0343  0.7083  0.3257  0.1478  0.1735

 Free energy of the ion-electron system (eV)
  ---------------------------------------------------
  alpha Z        PSCENC =      1441.36794296
  Ewald energy   TEWEN  =    243318.54112751
  -Hartree energ DENC   =   -292425.41873014
  -exchange      EXHF   =         0.00000000
  -V(xc)+E(xc)   XCENC  =       244.84439510
  PAW double counting   =     56441.85287887   -54808.74396438
  entropy T*S    EENTRO =        -0.39871535
  eigenvalues    EBANDS =     -2152.40137671
  atomic energy  EATOM  =     47527.87699037
  Solvation  Ediel_sol  =         0.00000000
  ---------------------------------------------------
  free energy    TOTEN  =      -412.47945176 eV

  energy without entropy =     -412.08073641  energy(sigma->0) =     -412.28009408


--------------------------------------------------------------------------------------------------------




--------------------------------------- Iteration      1(  11)  ---------------------------------------


    POTLOK:  cpu time    0.0287: real time    0.0303
    SETDIJ:  cpu time    0.0036: real time    0.0036
    EDDIAG:  cpu time    1.2610: real time    1.2622
  RMM-DIIS:  cpu time    3.4730: real time    3.4768
    ORTHCH:  cpu time    0.6152: real time    0.6186
       DOS:  cpu time    0.0009: real time    0.0009
    CHARGE:  cpu time    0.1480: real time    0.1482
    MIXING:  cpu time    0.0011: real time    0.0011
    --------------------------------------------
      LOOP:  cpu time    5.5314: real time    5.5417

 eigenvalue-minimisations  :  3933
 total energy-change (2. order) : 0.2243241E+02  (-0.1521806E+01)
 number of electron     651.9999799 magnetization 
 augmentation part      200.5309007 magnetization 

 DIPCOR: dipole corrections for dipol
 direction  3 min pos   187,
 dipolmoment           0.000000      0.000000     -0.417404 electrons x Angstroem
 Tr[quadrupol]    -12680.130084

 energy correction for charged system         0.000000 eV
 dipol+quadrupol energy correction           -0.005670 eV
 added-field ion interaction        -10.914480 eV  (added to PSCEN)


 Broyden mixing:
  rms(total) = 0.29511E+01    rms(broyden)= 0.29509E+01
  rms(prec ) = 0.37075E+01
  weight for this iteration     100.00

 eigenvalues of (default mixing * dielectric matrix)
  average eigenvalue GAMMA=   0.6588
  2.1557  0.7621  0.3342  0.3342  0.1493  0.2170

 Free energy of the ion-electron system (eV)
  ---------------------------------------------------
  alpha Z        PSCENC =      1426.44353445
  Ewald energy   TEWEN  =    243318.54112751
  -Hartree energ DENC   =   -292450.21430993
  -exchange      EXHF   =         0.00000000
  -V(xc)+E(xc)   XCENC  =       245.96744657
  PAW double counting   =     56741.20339937   -55107.88461288
  entropy T*S    EENTRO =        -0.54411725
  eigenvalues    EBANDS =     -2091.43649720
  atomic energy  EATOM  =     47527.87699037
  Solvation  Ediel_sol  =         0.00000000
  ---------------------------------------------------
  free energy    TOTEN  =      -390.04703899 eV

  energy without entropy =     -389.50292174  energy(sigma->0) =     -389.77498036


--------------------------------------------------------------------------------------------------------




--------------------------------------- Iteration      1(  12)  ---------------------------------------


    POTLOK:  cpu time    0.0284: real time    0.0407
    SETDIJ:  cpu time    0.0038: real time    0.0039
    EDDIAG:  cpu time    1.2562: real time    1.2575
  RMM-DIIS:  cpu time    3.4499: real time    3.4537
    ORTHCH:  cpu time    0.6138: real time    0.6142
       DOS:  cpu time    0.0009: real time    0.0009
    CHARGE:  cpu time    0.1478: real time    0.1480
    MIXING:  cpu time    0.0012: real time    0.0012
    --------------------------------------------
      LOOP:  cpu time    5.5021: real time    5.5201

 eigenvalue-minimisations  :  3937
 total energy-change (2. order) : 0.5271919E+01  (-0.6880867E+00)
 number of electron     651.9999801 magnetization 
 augmentation part      200.7116023 magnetization 

 DIPCOR: dipole corrections for dipol
 direction  3 min pos   192,
 dipolmoment           0.000000      0.000000     -0.163878 electrons x Angstroem
 Tr[quadrupol]    -12680.985494

 energy correction for charged system         0.000000 eV
 dipol+quadrupol energy correction           -0.000874 eV
 added-field ion interaction         -7.389542 eV  (added to PSCEN)


 Broyden mixing:
  rms(total) = 0.18591E+01    rms(broyden)= 0.18590E+01
  rms(prec ) = 0.21619E+01
  weight for this iteration     100.00

 eigenvalues of (default mixing * dielectric matrix)
  average eigenvalue GAMMA=   0.6383
  2.1348  0.8503  0.4428  0.4428  0.2795  0.1589  0.1589

 Free energy of the ion-electron system (eV)
  ---------------------------------------------------
  alpha Z        PSCENC =      1429.97326867
  Ewald energy   TEWEN  =    243318.54112751
  -Hartree energ DENC   =   -292466.46504240
  -exchange      EXHF   =         0.00000000
  -V(xc)+E(xc)   XCENC  =       245.62144545
  PAW double counting   =     56989.34394992   -55359.75357312
  entropy T*S    EENTRO =        -0.58086942
  eigenvalues    EBANDS =     -2069.33241661
  atomic energy  EATOM  =     47527.87699037
  Solvation  Ediel_sol  =         0.00000000
  ---------------------------------------------------
  free energy    TOTEN  =      -384.77511963 eV

  energy without entropy =     -384.19425021  energy(sigma->0) =     -384.48468492


--------------------------------------------------------------------------------------------------------




--------------------------------------- Iteration      1(  13)  ---------------------------------------


    POTLOK:  cpu time    0.0285: real time    0.0286
    SETDIJ:  cpu time    0.0035: real time    0.0035
    EDDIAG:  cpu time    1.2571: real time    1.2584
  RMM-DIIS:  cpu time    3.4257: real time    3.4496
    ORTHCH:  cpu time    0.6147: real time    0.6151
       DOS:  cpu time    0.0009: real time    0.0009
    CHARGE:  cpu time    0.1477: real time    0.1480
    MIXING:  cpu time    0.0012: real time    0.0012
    --------------------------------------------
      LOOP:  cpu time    5.4793: real time    5.5053

 eigenvalue-minimisations  :  3940
 total energy-change (2. order) : 0.1396002E+01  (-0.2499396E+00)
 number of electron     651.9999800 magnetization 
 augmentation part      200.6799886 magnetization 

 DIPCOR: dipole corrections for dipol
 direction  3 min pos   193,
 dipolmoment           0.000000      0.000000      0.009108 electrons x Angstroem
 Tr[quadrupol]    -12681.432038

 energy correction for charged system         0.000000 eV
 dipol+quadrupol energy correction           -0.000003 eV
 added-field ion interaction          0.445182 eV  (added to PSCEN)


 Broyden mixing:
  rms(total) = 0.13918E+01    rms(broyden)= 0.13918E+01
  rms(prec ) = 0.16660E+01
  weight for this iteration     100.00

 eigenvalues of (default mixing * dielectric matrix)
  average eigenvalue GAMMA=   0.5817
  2.1148  0.8372  0.4630  0.4630  0.2428  0.1513  0.1909  0.1909

 Free energy of the ion-electron system (eV)
  ---------------------------------------------------
  alpha Z        PSCENC =      1437.80886433
  Ewald energy   TEWEN  =    243318.54112751
  -Hartree energ DENC   =   -292468.80835532
  -exchange      EXHF   =         0.00000000
  -V(xc)+E(xc)   XCENC  =       245.47888335
  PAW double counting   =     56986.46481854   -55356.86301740
  entropy T*S    EENTRO =        -0.61424069
  eigenvalues    EBANDS =     -2073.26418875
  atomic energy  EATOM  =     47527.87699037
  Solvation  Ediel_sol  =         0.00000000
  ---------------------------------------------------
  free energy    TOTEN  =      -383.37911807 eV

  energy without entropy =     -382.76487738  energy(sigma->0) =     -383.07199772


--------------------------------------------------------------------------------------------------------




--------------------------------------- Iteration      1(  14)  ---------------------------------------


    POTLOK:  cpu time    0.0284: real time    0.0286
    SETDIJ:  cpu time    0.0036: real time    0.0036
    EDDIAG:  cpu time    1.2602: real time    1.2615
  RMM-DIIS:  cpu time    3.4718: real time    3.4759
    ORTHCH:  cpu time    0.6131: real time    0.6134
       DOS:  cpu time    0.0009: real time    0.0009
    CHARGE:  cpu time    0.1479: real time    0.1481
    MIXING:  cpu time    0.0013: real time    0.0013
    --------------------------------------------
      LOOP:  cpu time    5.5272: real time    5.5333

 eigenvalue-minimisations  :  3943
 total energy-change (2. order) : 0.1410400E+01  (-0.7863457E-01)
 number of electron     651.9999801 magnetization 
 augmentation part      200.6623040 magnetization 

 DIPCOR: dipole corrections for dipol
 direction  3 min pos   195,
 dipolmoment           0.000000      0.000000     -0.025550 electrons x Angstroem
 Tr[quadrupol]    -12681.221037

 energy correction for charged system         0.000000 eV
 dipol+quadrupol energy correction           -0.000021 eV
 added-field ion interaction         -1.442509 eV  (added to PSCEN)


 Broyden mixing:
  rms(total) = 0.78375E+00    rms(broyden)= 0.78374E+00
  rms(prec ) = 0.91348E+00
  weight for this iteration     100.00

 eigenvalues of (default mixing * dielectric matrix)
  average eigenvalue GAMMA=   0.5673
  2.0983  0.6429  0.6429  0.5645  0.3283  0.3283  0.1960  0.1523  0.1523

 Free energy of the ion-electron system (eV)
  ---------------------------------------------------
  alpha Z        PSCENC =      1435.92115421
  Ewald energy   TEWEN  =    243318.54112751
  -Hartree energ DENC   =   -292468.69745415
  -exchange      EXHF   =         0.00000000
  -V(xc)+E(xc)   XCENC  =       245.59459195
  PAW double counting   =     56965.74609300   -55335.42019273
  entropy T*S    EENTRO =        -0.65959997
  eigenvalues    EBANDS =     -2070.87142844
  atomic energy  EATOM  =     47527.87699037
  Solvation  Ediel_sol  =         0.00000000
  ---------------------------------------------------
  free energy    TOTEN  =      -381.96871823 eV

  energy without entropy =     -381.30911826  energy(sigma->0) =     -381.63891825


--------------------------------------------------------------------------------------------------------




--------------------------------------- Iteration      1(  15)  ---------------------------------------


    POTLOK:  cpu time    0.0285: real time    0.0287
    SETDIJ:  cpu time    0.0035: real time    0.0035
    EDDIAG:  cpu time    1.2599: real time    1.2611
  RMM-DIIS:  cpu time    3.4621: real time    3.4686
    ORTHCH:  cpu time    0.6142: real time    0.6145
       DOS:  cpu time    0.0009: real time    0.0009
    CHARGE:  cpu time    0.1480: real time    0.1483
    MIXING:  cpu time    0.0014: real time    0.0014
    --------------------------------------------
      LOOP:  cpu time    5.5187: real time    5.5271

 eigenvalue-minimisations  :  3946
 total energy-change (2. order) : 0.1779979E+00  (-0.3599752E-01)
 number of electron     651.9999802 magnetization 
 augmentation part      200.5920960 magnetization 

 DIPCOR: dipole corrections for dipol
 direction  3 min pos   196,
 dipolmoment           0.000000      0.000000     -0.052876 electrons x Angstroem
 Tr[quadrupol]    -12681.228100

 energy correction for charged system         0.000000 eV
 dipol+quadrupol energy correction           -0.000091 eV
 added-field ion interaction         -3.185599 eV  (added to PSCEN)


 Broyden mixing:
  rms(total) = 0.69013E+00    rms(broyden)= 0.69013E+00
  rms(prec ) = 0.74972E+00
  weight for this iteration     100.00

 eigenvalues of (default mixing * dielectric matrix)
  average eigenvalue GAMMA=   0.5856
  2.1124  0.8739  0.8739  0.5059  0.3853  0.3853  0.2142  0.2012  0.1518  0.1518

 Free energy of the ion-electron system (eV)
  ---------------------------------------------------
  alpha Z        PSCENC =      1434.17799493
  Ewald energy   TEWEN  =    243318.54112751
  -Hartree energ DENC   =   -292476.14321969
  -exchange      EXHF   =         0.00000000
  -V(xc)+E(xc)   XCENC  =       245.76496642
  PAW double counting   =     56945.26087844   -55313.97554404
  entropy T*S    EENTRO =        -0.66438911
  eigenvalues    EBANDS =     -2062.62952517
  atomic energy  EATOM  =     47527.87699037
  Solvation  Ediel_sol  =         0.00000000
  ---------------------------------------------------
  free energy    TOTEN  =      -381.79072034 eV

  energy without entropy =     -381.12633123  energy(sigma->0) =     -381.45852579


--------------------------------------------------------------------------------------------------------




--------------------------------------- Iteration      1(  16)  ---------------------------------------


    POTLOK:  cpu time    0.0307: real time    0.0318
    SETDIJ:  cpu time    0.0036: real time    0.0036
    EDDIAG:  cpu time    1.2601: real time    1.2617
  RMM-DIIS:  cpu time    3.4693: real time    3.4729
    ORTHCH:  cpu time    0.6157: real time    0.6160
       DOS:  cpu time    0.0009: real time    0.0009
    CHARGE:  cpu time    0.1481: real time    0.1483
    MIXING:  cpu time    0.0015: real time    0.0015
    --------------------------------------------
      LOOP:  cpu time    5.5298: real time    5.5368

 eigenvalue-minimisations  :  3949
 total energy-change (2. order) : 0.1153487E+00  (-0.2105152E-01)
 number of electron     651.9999802 magnetization 
 augmentation part      200.5013963 magnetization 

 DIPCOR: dipole corrections for dipol
 direction  3 min pos   196,
 dipolmoment           0.000000      0.000000     -0.078770 electrons x Angstroem
 Tr[quadrupol]    -12681.411475

 energy correction for charged system         0.000000 eV
 dipol+quadrupol energy correction           -0.000202 eV
 added-field ion interaction         -4.745567 eV  (added to PSCEN)


 Broyden mixing:
  rms(total) = 0.55480E+00    rms(broyden)= 0.55480E+00
  rms(prec ) = 0.58838E+00
  weight for this iteration     100.00

 eigenvalues of (default mixing * dielectric matrix)
  average eigenvalue GAMMA=   0.6111
  2.1650  1.0392  1.0392  0.5816  0.4363  0.4363  0.2714  0.2714  0.1796  0.1509
  0.1509

 Free energy of the ion-electron system (eV)
  ---------------------------------------------------
  alpha Z        PSCENC =      1432.61791577
  Ewald energy   TEWEN  =    243318.54112751
  -Hartree energ DENC   =   -292488.29271793
  -exchange      EXHF   =         0.00000000
  -V(xc)+E(xc)   XCENC  =       245.96333928
  PAW double counting   =     56955.92038029   -55323.86462438
  entropy T*S    EENTRO =        -0.67189875
  eigenvalues    EBANDS =     -2049.76588379
  atomic energy  EATOM  =     47527.87699037
  Solvation  Ediel_sol  =         0.00000000
  ---------------------------------------------------
  free energy    TOTEN  =      -381.67537163 eV

  energy without entropy =     -381.00347288  energy(sigma->0) =     -381.33942226


--------------------------------------------------------------------------------------------------------




--------------------------------------- Iteration      1(  17)  ---------------------------------------


    POTLOK:  cpu time    0.0305: real time    0.0317
    SETDIJ:  cpu time    0.0036: real time    0.0036
    EDDIAG:  cpu time    1.2592: real time    1.2604
  RMM-DIIS:  cpu time    3.4716: real time    3.4783
    ORTHCH:  cpu time    0.6141: real time    0.6144
       DOS:  cpu time    0.0009: real time    0.0009
    CHARGE:  cpu time    0.1478: real time    0.1480
    MIXING:  cpu time    0.0016: real time    0.0016
    --------------------------------------------
      LOOP:  cpu time    5.5293: real time    5.5388

 eigenvalue-minimisations  :  3940
 total energy-change (2. order) :-0.4392680E-01  (-0.1964283E-01)
 number of electron     651.9999803 magnetization 
 augmentation part      200.4277521 magnetization 

 DIPCOR: dipole corrections for dipol
 direction  3 min pos   185,
 dipolmoment           0.000000      0.000000     -0.102870 electrons x Angstroem
 Tr[quadrupol]    -12681.917370

 energy correction for charged system         0.000000 eV
 dipol+quadrupol energy correction           -0.000344 eV
 added-field ion interaction         -1.910429 eV  (added to PSCEN)


 Broyden mixing:
  rms(total) = 0.53828E+00    rms(broyden)= 0.53827E+00
  rms(prec ) = 0.60385E+00
  weight for this iteration     100.00

 eigenvalues of (default mixing * dielectric matrix)
  average eigenvalue GAMMA=   0.6515
  2.1928  1.3184  1.3184  0.8336  0.4306  0.3849  0.3849  0.2816  0.1870  0.1849
  0.1508  0.1508

 Free energy of the ion-electron system (eV)
  ---------------------------------------------------
  alpha Z        PSCENC =      1435.45291139
  Ewald energy   TEWEN  =    243318.54112751
  -Hartree energ DENC   =   -292501.50609470
  -exchange      EXHF   =         0.00000000
  -V(xc)+E(xc)   XCENC  =       246.09225275
  PAW double counting   =     56994.63925290   -55362.30924396
  entropy T*S    EENTRO =        -0.66831718
  eigenvalues    EBANDS =     -2039.83817750
  atomic energy  EATOM  =     47527.87699037
  Solvation  Ediel_sol  =         0.00000000
  ---------------------------------------------------
  free energy    TOTEN  =      -381.71929843 eV

  energy without entropy =     -381.05098125  energy(sigma->0) =     -381.38513984


--------------------------------------------------------------------------------------------------------




--------------------------------------- Iteration      1(  18)  ---------------------------------------


    POTLOK:  cpu time    0.0304: real time    0.0393
    SETDIJ:  cpu time    0.0036: real time    0.0037
    EDDIAG:  cpu time    1.2612: real time    1.2627
  RMM-DIIS:  cpu time    3.4690: real time    3.4730
    ORTHCH:  cpu time    0.6134: real time    0.6137
       DOS:  cpu time    0.0009: real time    0.0009
    CHARGE:  cpu time    0.1485: real time    0.1488
    MIXING:  cpu time    0.0016: real time    0.0016
    --------------------------------------------
      LOOP:  cpu time    5.5286: real time    5.5437

 eigenvalue-minimisations  :  3941
 total energy-change (2. order) : 0.5275570E-01  (-0.1725044E-01)
 number of electron     651.9999803 magnetization 
 augmentation part      200.3071194 magnetization 

 DIPCOR: dipole corrections for dipol
 direction  3 min pos   179,
 dipolmoment           0.000000      0.000000     -0.099501 electrons x Angstroem
 Tr[quadrupol]    -12682.417494

 energy correction for charged system         0.000000 eV
 dipol+quadrupol energy correction           -0.000322 eV
 added-field ion interaction          0.413979 eV  (added to PSCEN)


 Broyden mixing:
  rms(total) = 0.41662E+00    rms(broyden)= 0.41661E+00
  rms(prec ) = 0.48264E+00
  weight for this iteration     100.00

 eigenvalues of (default mixing * dielectric matrix)
  average eigenvalue GAMMA=   0.6565
  2.0439  1.5291  1.5291  0.9060  0.5231  0.3859  0.3859  0.3269  0.2414  0.1939
  0.1679  0.1507  0.1507

 Free energy of the ion-electron system (eV)
  ---------------------------------------------------
  alpha Z        PSCENC =      1437.77734124
  Ewald energy   TEWEN  =    243318.54112751
  -Hartree energ DENC   =   -292517.72600642
  -exchange      EXHF   =         0.00000000
  -V(xc)+E(xc)   XCENC  =       246.28364008
  PAW double counting   =     57014.99494433   -55381.89032719
  entropy T*S    EENTRO =        -0.67644049
  eigenvalues    EBANDS =     -2026.84781216
  atomic energy  EATOM  =     47527.87699037
  Solvation  Ediel_sol  =         0.00000000
  ---------------------------------------------------
  free energy    TOTEN  =      -381.66654274 eV

  energy without entropy =     -380.99010224  energy(sigma->0) =     -381.32832249


--------------------------------------------------------------------------------------------------------




--------------------------------------- Iteration      1(  19)  ---------------------------------------


    POTLOK:  cpu time    0.0327: real time    0.0407
    SETDIJ:  cpu time    0.0036: real time    0.0036
    EDDIAG:  cpu time    1.2609: real time    1.2647
  RMM-DIIS:  cpu time    3.4704: real time    3.4744
    ORTHCH:  cpu time    0.6132: real time    0.6134
       DOS:  cpu time    0.0009: real time    0.0009
    CHARGE:  cpu time    0.1520: real time    0.1522
    MIXING:  cpu time    0.0017: real time    0.0017
    --------------------------------------------
      LOOP:  cpu time    5.5355: real time    5.5516

 eigenvalue-minimisations  :  3938
 total energy-change (2. order) : 0.9626929E-01  (-0.1209587E-01)
 number of electron     651.9999802 magnetization 
 augmentation part      200.2202644 magnetization 

 DIPCOR: dipole corrections for dipol
 direction  3 min pos   181,
 dipolmoment           0.000000      0.000000     -0.076059 electrons x Angstroem
 Tr[quadrupol]    -12682.486839

 energy correction for charged system         0.000000 eV
 dipol+quadrupol energy correction           -0.000188 eV
 added-field ion interaction         -0.259872 eV  (added to PSCEN)


 Broyden mixing:
  rms(total) = 0.26061E+00    rms(broyden)= 0.26061E+00
[...]
    FORHAR:  cpu time    0.0139: real time    0.0139
    MIXING:  cpu time    0.0012: real time    0.0012
    OFIELD:  cpu time    0.0000: real time    0.0000

 ---------------------------------------------------------------------------------------------

         DFTD3 V3.0 Rev 1        
 Edisp (eV)  -34.53476

 E6    (eV) :   -12.9907
 E8    (eV) :   -21.5440
 % E8        : 62.38
    FORVDW:  cpu time    0.1825: real time    0.2119

  FORCE on cell =-STRESS in cart. coord.  units (eV):
  Direction    XX          YY          ZZ          XY          YZ          ZX
  --------------------------------------------------------------------------------------
  Alpha Z  1437.36368  1437.36368  1437.36368
  Ewald  283560.99714283340.95326************    -0.01846    -0.01333   -59.36435
  Hartree294031.20374294016.09272************    -0.00766     0.00329   -13.81865
  E(xc)   -2890.16092 -2890.88400 -2907.38962    -0.00006    -0.00007    -0.28440
  Local  ************************597885.86956     0.02405     0.00675    62.97873
  n-local   249.42326   213.50548   239.44103     0.00007    -0.00130    -5.30554
  augment  3353.41548  3373.25055  3423.48676     0.00068     0.00136     4.64351
  Kinetic  9481.20151  9514.93891  9694.08771     0.00153     0.00246     9.57790
  Fock        0.00000     0.00000     0.00000     0.00000     0.00000     0.00000
  vdW       -43.50617   -42.79440   -30.02059     0.00010    -0.00002     0.55040
  -------------------------------------------------------------------------------------
  Total     -94.87141  -108.76810   -12.20504     0.00025    -0.00087    -1.02240
  in kB     -54.66397   -62.67111    -7.03242     0.00014    -0.00050    -0.58910
  external pressure =      -41.46 kB  Pullay stress =        0.00 kB


 VOLUME and BASIS-vectors are now :
 -----------------------------------------------------------------------------
  energy-cutoff  :      450.00
  volume of cell :     2780.64
      direct lattice vectors                 reciprocal lattice vectors
     9.717792020  0.000000000  0.000000000     0.102904034  0.000000000  0.000000000
     0.000000000 11.445562474  0.000000000     0.000000000  0.087370105  0.000000000
     0.000000000  0.000000000 25.000000000     0.000000000  0.000000000  0.040000000

  length of vectors
     9.717792020 11.445562474 25.000000000     0.102904034  0.087370105  0.040000000


 FORCES acting on ions
    electron-ion (+dipol)            ewald-force                    non-local-force                 convergence-correction
 -----------------------------------------------------------------------------------------------
   -.133E+01 -.349E+00 0.253E+04   0.114E+01 0.343E+00 -.253E+04   0.139E+00 -.414E-02 -.126E+01   0.154E-01 0.447E-02 0.349E-03
   -.661E+00 -.276E+01 0.903E+03   0.621E+00 0.267E+01 -.902E+03   0.280E-01 0.144E+00 -.941E+00   0.228E-01 0.245E-01 0.509E-01
   0.650E+01 0.937E+01 -.763E+03   -.621E+01 -.887E+01 0.764E+03   -.339E+00 -.524E+00 0.150E-01   0.313E-01 0.933E-02 0.341E-01
   -.114E+01 -.713E+00 0.253E+04   0.103E+01 0.622E+00 -.253E+04   0.665E-01 0.306E-01 -.136E+01   0.292E-01 0.267E-01 0.240E-01
   -.375E+01 -.316E+01 0.903E+03   0.376E+01 0.313E+01 -.903E+03   0.277E-01 0.746E-01 -.965E+00   0.421E-01 0.262E-01 0.456E-01
   -.412E+01 0.801E+01 -.776E+03   0.405E+01 -.784E+01 0.776E+03   0.598E-01 -.212E+00 0.786E+00   0.816E-02 0.355E-01 0.919E-02
   0.192E+02 0.120E+02 -.247E+04   -.196E+02 -.121E+02 0.247E+04   0.393E+00 0.583E-01 0.126E+01   -.442E-02 -.835E-02 0.108E-01
   0.503E+02 0.951E+02 -.239E+04   -.512E+02 -.973E+02 0.239E+04   0.952E+00 0.231E+01 0.883E+00   0.220E-01 0.894E-02 -.636E-02
   -.106E+01 -.412E+00 0.253E+04   0.112E+01 0.362E+00 -.253E+04   -.331E-01 0.159E-02 -.129E+01   0.200E-01 0.135E-01 0.988E-02
   -.159E+01 -.286E+01 0.902E+03   0.150E+01 0.277E+01 -.901E+03   0.422E-01 0.132E+00 -.768E+00   0.361E-01 0.443E-01 0.570E-01
   0.788E+01 0.980E+01 -.771E+03   -.754E+01 -.932E+01 0.771E+03   -.431E+00 -.524E+00 0.900E-01   0.557E-01 0.292E-01 0.885E-02
   -.129E+01 -.665E-02 0.253E+04   0.120E+01 -.291E-03 -.253E+04   0.496E-01 -.203E-04 -.134E+01   0.424E-01 0.697E-02 0.450E-01
   -.416E+01 -.721E-02 0.903E+03   0.399E+01 -.373E-02 -.903E+03   0.172E+00 -.151E-04 -.823E+00   0.603E-01 0.110E-01 0.528E-01
   -.438E+01 -.258E-02 -.789E+03   0.433E+01 -.911E-02 0.788E+03   0.547E-01 -.291E-03 0.871E+00   0.167E-02 0.119E-01 -.204E-01
   0.412E+02 0.918E+01 -.244E+04   -.418E+02 -.930E+01 0.243E+04   0.515E+00 0.112E+00 0.172E+01   0.820E-02 0.487E-02 0.156E-02
   0.105E+03 -.648E-02 -.234E+04   -.107E+03 -.907E-03 0.234E+04   0.285E+01 0.257E-04 0.112E+01   0.281E-01 0.743E-02 -.231E-01
   -.106E+01 0.403E+00 0.253E+04   0.112E+01 -.363E+00 -.253E+04   -.331E-01 -.163E-02 -.129E+01   0.200E-01 -.404E-02 0.152E-01
   -.159E+01 0.284E+01 0.902E+03   0.150E+01 -.277E+01 -.901E+03   0.422E-01 -.132E+00 -.768E+00   0.365E-01 -.276E-01 0.605E-01
   0.788E+01 -.982E+01 -.771E+03   -.753E+01 0.932E+01 0.771E+03   -.431E+00 0.524E+00 0.902E-01   0.562E-01 -.127E-01 0.616E-02
   -.115E+01 0.713E+00 0.253E+04   0.103E+01 -.622E+00 -.253E+04   0.665E-01 -.306E-01 -.136E+01   0.300E-01 -.263E-01 0.321E-01
   -.374E+01 0.316E+01 0.903E+03   0.376E+01 -.313E+01 -.903E+03   0.275E-01 -.747E-01 -.965E+00   0.431E-01 -.260E-01 0.503E-01
   -.412E+01 -.800E+01 -.776E+03   0.406E+01 0.783E+01 0.776E+03   0.600E-01 0.212E+00 0.785E+00   0.837E-02 -.351E-01 0.472E-02
   0.412E+02 -.920E+01 -.244E+04   -.418E+02 0.931E+01 0.243E+04   0.515E+00 -.112E+00 0.172E+01   0.781E-02 0.589E-02 -.404E-02
   0.503E+02 -.951E+02 -.239E+04   -.512E+02 0.973E+02 0.239E+04   0.952E+00 -.231E+01 0.883E+00   0.223E-01 -.102E-01 -.146E-01
   -.133E+01 0.358E+00 0.253E+04   0.114E+01 -.343E+00 -.253E+04   0.139E+00 0.417E-02 -.126E+01   0.156E-01 -.139E-01 0.557E-02
   -.659E+00 0.278E+01 0.903E+03   0.619E+00 -.267E+01 -.902E+03   0.278E-01 -.144E+00 -.941E+00   0.233E-01 -.412E-01 0.541E-01
   0.652E+01 -.936E+01 -.763E+03   -.622E+01 0.887E+01 0.764E+03   -.339E+00 0.524E+00 0.152E-01   0.320E-01 -.256E-01 0.312E-01
   -.104E+01 0.699E-02 0.253E+04   0.857E+00 0.263E-03 -.253E+04   0.906E-01 0.320E-04 -.135E+01   0.179E-01 -.732E-02 0.120E-01
   -.428E+01 0.121E-01 0.903E+03   0.437E+01 -.985E-03 -.902E+03   -.281E-01 -.358E-04 -.112E+01   0.244E-01 -.111E-01 0.453E-01
   -.201E+01 -.921E-02 -.764E+03   0.195E+01 0.211E-01 0.764E+03   0.408E-01 0.269E-02 0.711E+00   0.156E-01 -.121E-01 0.350E-01
   0.192E+02 -.120E+02 -.247E+04   -.196E+02 0.121E+02 0.247E+04   0.394E+00 -.584E-01 0.126E+01   -.466E-02 -.282E-02 0.529E-02
   -.535E+01 0.166E-02 -.246E+04   0.513E+01 0.585E-02 0.246E+04   0.197E+00 0.212E-03 0.137E+01   0.200E-01 -.773E-02 -.107E-02
   -.217E+00 -.596E+00 0.253E+04   0.223E+00 0.563E+00 -.253E+04   0.426E-01 0.129E-01 -.134E+01   -.142E-01 0.165E-01 0.210E-01
   0.107E+01 -.661E+00 0.906E+03   -.958E+00 0.716E+00 -.906E+03   -.505E-01 -.134E-01 -.117E+01   -.241E-01 0.450E-02 0.523E-01
   -.228E+01 0.310E+01 -.768E+03   0.215E+01 -.304E+01 0.767E+03   0.150E+00 -.614E-01 0.725E+00   -.327E-01 0.130E-02 0.408E-01
   -.962E-01 -.713E+00 0.253E+04   0.136E+00 0.700E+00 -.253E+04   0.384E-01 -.272E-02 -.138E+01   -.293E-01 0.191E-01 0.116E-01
   0.242E+01 -.292E+01 0.903E+03   -.231E+01 0.294E+01 -.902E+03   -.140E+00 0.304E-01 -.915E+00   -.409E-01 0.409E-01 0.571E-01
   0.317E+01 0.363E+01 -.758E+03   -.314E+01 -.353E+01 0.757E+03   -.256E-01 -.112E+00 0.791E+00   -.818E-02 0.933E-02 0.399E-01
   -.171E+02 0.256E+02 -.245E+04   0.176E+02 -.261E+02 0.245E+04   -.525E+00 0.529E+00 0.186E+01   0.314E-02 -.652E-02 -.111E-01
   -.891E+01 0.133E+02 -.247E+04   0.927E+01 -.136E+02 0.247E+04   -.353E+00 0.279E+00 0.138E+01   -.204E-01 -.876E-02 -.244E-02
   -.289E+00 -.630E+00 0.253E+04   0.295E+00 0.585E+00 -.253E+04   0.328E-01 0.340E-02 -.134E+01   -.202E-01 0.292E-01 0.475E-01
   0.371E+01 -.132E+01 0.904E+03   -.372E+01 0.134E+01 -.904E+03   0.763E-02 -.115E-02 -.108E+01   -.368E-01 0.231E-01 0.484E-01
   -.109E+02 0.266E+01 -.771E+03   0.103E+02 -.264E+01 0.771E+03   0.688E+00 -.336E-01 -.393E-01   -.545E-01 0.221E-01 0.813E-02
   0.113E+00 -.667E-02 0.253E+04   -.414E-01 -.677E-04 -.253E+04   0.348E-01 -.335E-04 -.136E+01   -.428E-01 0.680E-02 0.256E-01
   0.303E+01 -.125E-01 0.899E+03   -.286E+01 0.108E-02 -.899E+03   -.173E+00 0.545E-04 -.689E+00   -.602E-01 0.115E-01 0.580E-01
   0.429E+01 0.513E-02 -.754E+03   -.428E+01 -.164E-01 0.754E+03   0.406E-02 -.460E-03 0.705E+00   -.128E-02 0.114E-01 0.261E-01
   -.112E+03 0.233E+02 -.239E+04   0.114E+03 -.234E+02 0.239E+04   -.226E+01 0.162E+00 0.110E+01   -.164E-01 0.552E-02 -.290E-01
   -.287E+02 -.136E-01 -.246E+04   0.289E+02 0.559E-02 0.246E+04   -.139E+00 0.105E-03 0.148E+01   -.198E-01 0.805E-02 -.128E-01
   -.289E+00 0.620E+00 0.253E+04   0.296E+00 -.585E+00 -.253E+04   0.328E-01 -.340E-02 -.134E+01   -.204E-01 -.188E-01 0.532E-01
   0.372E+01 0.131E+01 0.904E+03   -.373E+01 -.134E+01 -.904E+03   0.746E-02 0.121E-02 -.108E+01   -.373E-01 -.767E-02 0.517E-01
   -.109E+02 -.267E+01 -.771E+03   0.103E+02 0.264E+01 0.772E+03   0.688E+00 0.338E-01 -.399E-01   -.550E-01 -.546E-02 0.570E-02
   -.951E-01 0.713E+00 0.253E+04   0.135E+00 -.700E+00 -.253E+04   0.385E-01 0.274E-02 -.138E+01   -.302E-01 -.191E-01 0.192E-01
   0.242E+01 0.292E+01 0.903E+03   -.231E+01 -.294E+01 -.902E+03   -.140E+00 -.303E-01 -.915E+00   -.422E-01 -.407E-01 0.619E-01
   0.316E+01 -.365E+01 -.758E+03   -.313E+01 0.355E+01 0.757E+03   -.251E-01 0.113E+00 0.791E+00   -.825E-02 -.922E-02 0.371E-01
   -.112E+03 -.233E+02 -.239E+04   0.114E+03 0.234E+02 0.239E+04   -.226E+01 -.162E+00 0.110E+01   -.160E-01 0.529E-02 -.348E-01
   -.892E+01 -.133E+02 -.247E+04   0.927E+01 0.136E+02 0.247E+04   -.353E+00 -.280E+00 0.138E+01   -.204E-01 0.824E-02 -.102E-01
   -.217E+00 0.606E+00 0.253E+04   0.224E+00 -.563E+00 -.253E+04   0.427E-01 -.129E-01 -.134E+01   -.146E-01 -.268E-01 0.269E-01
   0.107E+01 0.676E+00 0.906E+03   -.958E+00 -.715E+00 -.906E+03   -.505E-01 0.134E-01 -.117E+01   -.246E-01 -.199E-01 0.557E-01
   -.228E+01 -.308E+01 -.768E+03   0.215E+01 0.304E+01 0.767E+03   0.149E+00 0.615E-01 0.725E+00   -.333E-01 -.181E-01 0.384E-01
   -.305E+00 0.694E-02 0.253E+04   0.311E+00 -.118E-03 -.253E+04   0.304E-01 0.205E-04 -.140E+01   -.188E-01 -.686E-02 0.746E-02
   0.156E+01 0.117E-01 0.905E+03   -.150E+01 -.691E-04 -.905E+03   -.953E-01 -.251E-04 -.110E+01   -.236E-01 -.117E-01 0.621E-01
   0.332E+01 0.152E-01 -.764E+03   -.319E+01 -.384E-02 0.763E+03   -.126E+00 -.767E-04 0.886E+00   -.144E-01 -.115E-01 0.513E-01
   -.171E+02 -.256E+02 -.245E+04   0.176E+02 0.261E+02 0.245E+04   -.524E+00 -.530E+00 0.186E+01   0.350E-02 -.496E-02 -.168E-01
   0.472E+01 -.916E-02 -.247E+04   -.434E+01 0.171E-01 0.247E+04   -.389E+00 0.393E-03 0.130E+01   -.196E-01 -.803E-02 0.377E-03
   -.531E+01 0.358E+02 -.181E+04   0.540E+01 -.350E+02 0.183E+04   -.990E-01 -.782E+00 -.278E+02   0.446E-02 0.411E-02 -.653E-02
   -.532E+01 -.358E+02 -.181E+04   0.540E+01 0.350E+02 0.183E+04   -.995E-01 0.783E+00 -.278E+02   0.478E-02 0.308E-03 -.101E-01
 -----------------------------------------------------------------------------------------------
   -.479E+00 -.215E-02 0.614E+02   -.454E-12 0.782E-12 0.591E-11   0.423E+00 0.353E-02 -.628E+02   0.300E-02 0.168E-02 0.141E+01
 
 
 POSITION                                       TOTAL-FORCE (eV/Angst)
 -----------------------------------------------------------------------------------
      0.00000      0.00000      0.00000        -0.034972     -0.005671      0.215703
      3.23926      0.00000      2.29051         0.006127      0.075525     -0.339208
      1.62247      0.01882      4.47620        -0.003350     -0.006624      0.002125
      2.42945      1.43070      0.00000        -0.023193     -0.034713      0.335382
      0.80982      1.43070      2.29051         0.081790      0.070596     -0.296929
      4.04270      1.44994      4.49253        -0.001788      0.003168      0.005482
      9.66853     11.41517      6.70495        -0.008443     -0.005399      0.007106
      2.35287      1.26597      6.75588        -0.008966     -0.004932     -0.001989
      0.00000      2.86139      0.00000         0.040079     -0.035109      0.264167
      3.23926      2.86139      2.29051        -0.008464      0.086263     -0.153232
      1.63993      2.87511      4.50607        -0.007735     -0.007745     -0.004204
      2.42945      4.29209      0.00000        -0.009348     -0.000037      0.332790
      0.80982      4.29209      2.29051         0.052128     -0.000045     -0.339538
      4.04443      4.29212      4.52896        -0.005115     -0.000078     -0.008094
      9.65574      2.81247      6.67304        -0.006252     -0.012203     -0.002243
      2.23378      4.29209      6.80318        -0.012422      0.000027     -0.006301
      0.00000      5.72278      0.00000         0.040099      0.035078      0.264214
      3.23926      5.72278      2.29051        -0.008497     -0.086196     -0.153177
      1.63991      5.70906      4.50606        -0.007679      0.007838     -0.004156
      2.42945      7.15348      0.00000        -0.023196      0.034636      0.335509
      0.80982      7.15348      2.29051         0.081618     -0.070679     -0.296807
      4.04268      7.13425      4.49256        -0.001663     -0.003388      0.005272
      9.65576      5.77172      6.67306        -0.006424      0.012413     -0.002273
      2.35286      7.31821      6.75592        -0.008964      0.004820     -0.001983
      0.00000      8.58417      0.00000        -0.034992      0.005532      0.215749
      3.23926      8.58417      2.29051         0.006015     -0.075858     -0.339335
      1.62246      8.56532      4.47620        -0.003615      0.006446      0.002135
      2.42945     10.01487      0.00000        -0.077651     -0.000078      0.342873
      0.80982     10.01487      2.29051         0.088900     -0.000118     -0.343501
      4.03482     10.01481      4.45680         0.001805      0.002442     -0.001130
      9.66849      8.61461      6.70497        -0.008198      0.005227      0.006840
      2.39047     10.01487      6.70150        -0.003663     -0.000054     -0.000748
      4.85890      0.00000      0.00000         0.032198     -0.004684      0.337418
      8.09816      0.00000      2.29051         0.032989      0.047187     -0.379406
      6.47079     11.44415      4.45485        -0.006009     -0.001057     -0.000121
      7.28834      1.43070      0.00000         0.045761      0.003292      0.324016
      5.66871      1.43070      2.29051        -0.074028      0.088705     -0.327076
      8.90251      1.43122      4.44883        -0.002179     -0.006239     -0.000717
      4.87342     11.40931      6.68339        -0.000654     -0.003565      0.000067
      7.30604      1.37888      6.70458        -0.004644     -0.008803      0.003949
      4.85890      2.86139      0.00000         0.015931     -0.013033      0.357984
      8.09816      2.86139      2.29051        -0.036655      0.045947     -0.352261
      6.46026      2.85877      4.49054         0.004128      0.001580      0.001568
      7.28834      4.29209      0.00000         0.061182     -0.000016      0.363937
      5.66871      4.29209      2.29051        -0.068098      0.000043     -0.228867
      8.90537      4.29213      4.45257         0.000050     -0.000327     -0.000043
      5.00238      2.84327      6.76732        -0.003037      0.004378      0.004320
      7.33210      4.29211      6.69467        -0.000989      0.000067      0.001508
      4.85890      5.72278      0.00000         0.015918      0.012967      0.358075
      8.09816      5.72278      2.29051        -0.036871     -0.045959     -0.352374
      6.46024      5.72541      4.49058         0.004095     -0.001424      0.001276
      7.28834      7.15348      0.00000         0.045740     -0.003399      0.324156
      5.66871      7.15348      2.29051        -0.074039     -0.088790     -0.326723
      8.90247      7.15291      4.44884        -0.001853      0.006601     -0.000796
      5.00238      5.74093      6.76731        -0.003232     -0.004253      0.004505
      7.30602      7.20543      6.70457        -0.004570      0.008330      0.004134
      4.85890      8.58417      0.00000         0.032171      0.004542      0.337548
      8.09816      8.58417      2.29051         0.032966     -0.047375     -0.379227
      6.47081      8.58560      4.45488        -0.006105      0.001043     -0.000629
      7.28834     10.01487      0.00000         0.014296     -0.000066      0.313067
      5.66871     10.01487      2.29051        -0.065010     -0.000174     -0.414113
      8.91617     10.01488      4.44464        -0.004121     -0.000199      0.000405
      4.87341      8.62053      6.68338        -0.000677      0.003382      0.000334
      7.28909     10.01489      6.69755        -0.012693      0.000231      0.005281
      3.25019      2.76997      7.80124        -0.008007      0.001672     -0.010762
      3.25020      5.81421      7.80126        -0.007924     -0.001686     -0.010936
 -----------------------------------------------------------------------------------
    total drift:                               -0.053359      0.003063      0.067840


--------------------------------------------------------------------------------------------------------



  FREE ENERGIE OF THE ION-ELECTRON SYSTEM (eV)
  ---------------------------------------------------
  free  energy   TOTEN  =      -415.81153753 eV

  energy  without entropy=     -415.14554756  energy(sigma->0) =     -415.47854254
 
 d Force = 0.2290448E-03[ 0.204E-03, 0.254E-03]  d Energy = 0.2398544E-03-0.108E-04
 d Force = 0.1450130E+01[ 0.145E+01, 0.145E+01]  d Ewald  = 0.1450133E+01-0.258E-05


--------------------------------------------------------------------------------------------------------


    POTLOK:  cpu time    0.0348: real time    0.0350


--------------------------------------------------------------------------------------------------------


 stress matrix after NEB project (eV)
    -94.87141      0.00025     -1.02240
      0.00025   -108.76810     -0.00087
     -1.02240     -0.00087    -12.20504
  FORCES: max atom, RMS     0.014160    0.006539
  FORCE total and by dimension    0.053126    0.012693
  Stress total and by dimension  144.852123  108.768103
 Quasi-Newton relaxation of ions (Broydens 2nd method)
  g(Force)  = 0.545E-04   g(Stress)= 0.000E+00

 retain information from N=  2 steps
 eigenvalues of (default step * inverse Hessian matrix)
  average eigenvalue of G=   7.3024
 eigenvalue spectrum of G is  7.3024  7.3024


--------------------------------------------------------------------------------------------------------


  
 reached required accuracy - stopping structural energy minimisation
     LOOP+:  cpu time   51.4213: real time   51.7572
    4ORBIT:  cpu time    0.0000: real time    0.0000

 total amount of memory used by VASP MPI-rank0    75757. kBytes
=======================================================================

   base      :      30000. kBytes
   nonlr-proj:       5306. kBytes
   fftplans  :       3940. kBytes
   grid      :       6141. kBytes
   one-center:        139. kBytes
   wavefun   :      30231. kBytes
 
  
  
 General timing and accounting informations for this job:
 ========================================================
  
                  Total CPU time used (sec):     1411.545
                            User time (sec):     1230.000
                          System time (sec):      181.546
                         Elapsed time (sec):     1417.609
  
                   Maximum memory used (kb):     1021256.
                   Average memory used (kb):           0.
  
                          Minor page faults:       298474
                          Major page faults:            0
                 Voluntary context switches:     90769666
