ITEM: TIMESTEP
0
ITEM: NUMBER OF ATOMS
3074
ITEM: BOX BOUNDS pp pp pp
0.0000000000000000e+00 3.8693948398131120e+01
0.0000000000000000e+00 4.4679925159782847e+01
0.0000000000000000e+00 6.0000000000000000e+01
ITEM: ATOMS id type x y z v_stress_xx v_stress_yy v_stress_zz v_stress_xy v_stress_xz v_stress_yz
1 2 0 0 0 2596.05 2596.03 -99.025 -3.72988e-07 -0.00342864 1.43174e-06
2 2 3.2245 0 2.279 -1940.76 -1940.9 5336.46 -5.3216e-07 -0.0237737 1.60384e-06
3 2 1.61225 0 4.55799 -2804.09 -2804.23 -877.784 -2.53752e-06 -0.0237751 1.37817e-06
4 2 2.41837 1.39625 0 2596.05 2596.03 -99.025 1.66807e-06 -0.0034274 2.16313e-06
5 2 0.806124 1.39625 2.279 -1940.76 -1940.9 5336.46 -4.68567e-08 -0.0237772 6.28171e-06
6 2 4.03062 1.39625 4.55799 -2804.09 -2804.23 -877.784 -1.36093e-05 -0.0237788 -3.66179e-06
7 2 0 0 6.83699 -2812.33 -2812.48 -1020.96 2.24756e-06 -0.0353425 -8.3253e-06
8 2 3.2245 0 9.11598 -2812.36 -2812.5 -1021.14 -3.85986e-07 -0.0237883 -6.33112e-06
9 2 1.61225 0 11.395 -2812.36 -2812.5 -1021.14 4.71715e-06 -0.0237765 -5.51316e-06
10 2 2.41837 1.39625 6.83699 -2812.33 -2812.48 -1020.96 -9.6968e-06 -0.035353 -1.39857e-05
11 2 0.806124 1.39625 9.11598 -2812.36 -2812.5 -1021.14 1.82394e-07 -0.0237744 -2.10542e-05
12 2 4.03062 1.39625 11.395 -2812.36 -2812.5 -1021.14 2.52295e-05 -0.0237699 7.7079e-06
13 2 0 0 13.674 -2812.34 -2812.49 -1021.06 -5.97916e-06 -0.0353499 5.92887e-06
14 2 3.2245 0 15.953 -2812.36 -2812.5 -1021.14 1.26987e-05 -0.0237623 6.25921e-06
15 2 1.61225 0 18.232 -2812.36 -2812.49 -1021.04 1.52127e-06 -0.0237713 9.37454e-06
16 2 2.41837 1.39625 13.674 -2812.34 -2812.49 -1021.06 2.31298e-05 -0.0353387 1.23373e-05
17 2 0.806124 1.39625 15.953 -2812.36 -2812.5 -1021.14 -1.47873e-07 -0.0237756 2.0484e-05
18 2 4.03062 1.39625 18.232 -2812.36 -2812.5 -1021.04 -2.01798e-05 -0.0237824 -1.22784e-05
19 2 0 0 20.511 -2804.07 -2804.22 -877.709 2.30104e-06 -0.0353471 2.34081e-06
20 2 3.2245 0 22.79 -1940.76 -1940.9 5336.46 -9.93079e-06 -0.0237808 -1.87092e-06
21 2 1.61225 0 25.069 1639.46 1639.45 -62.5457 -1.63719e-06 -0.000747523 -9.91255e-07
22 2 2.41837 1.39625 20.511 -2804.07 -2804.22 -877.709 -2.23202e-05 -0.0353527 -3.24241e-06
23 2 0.806124 1.39625 22.79 -1940.76 -1940.9 5336.46 -1.11964e-06 -0.0237789 -3.28959e-06
24 2 4.03062 1.39625 25.069 1639.46 1639.45 -62.5457 -4.69235e-06 -0.000746059 1.37778e-06
25 2 0 2.7925 0 2596.05 2596.03 -99.025 -9.3478e-07 -0.003428 2.6924e-06
26 2 3.2245 2.7925 2.279 -1940.76 -1940.9 5336.46 -1.16512e-06 -0.0237804 3.3736e-06
27 2 1.61225 2.7925 4.55799 -2804.09 -2804.23 -877.784 -5.21836e-06 -0.0237783 2.55671e-06
28 2 2.41837 4.18874 0 2596.05 2596.03 -99.025 1.52169e-06 -0.00342889 1.72969e-06
29 2 0.806124 4.18874 2.279 -1940.76 -1940.9 5336.46 -2.77197e-08 -0.0237774 5.58605e-06
30 2 4.03062 4.18874 4.55799 -2804.09 -2804.23 -877.784 -1.36581e-05 -0.0237887 -3.46974e-06
31 2 0 2.7925 6.83699 -2812.33 -2812.48 -1020.96 5.15772e-06 -0.0353447 -1.82911e-05
32 2 3.2245 2.7925 9.11598 -2812.36 -2812.5 -1021.14 5.90736e-06 -0.023767 -8.58798e-06
33 2 1.61225 2.7925 11.395 -2812.36 -2812.5 -1021.14 1.12424e-05 -0.0237682 -3.36455e-06
34 2 2.41837 4.18874 6.83699 -2812.33 -2812.48 -1020.96 -5.96352e-06 -0.035343 -1.21424e-05
35 2 0.806124 4.18874 9.11598 -2812.36 -2812.5 -1021.14 5.58132e-07 -0.0237737 -1.35574e-05
36 2 4.03062 4.18874 11.395 -2812.36 -2812.5 -1021.14 1.76746e-05 -0.023763 -1.57536e-06
37 2 0 2.7925 13.674 -2812.34 -2812.49 -1021.06 -1.10306e-05 -0.0353504 1.71246e-05
38 2 3.2245 2.7925 15.953 -2812.36 -2812.5 -1021.14 -6.20639e-06 -0.0237884 -1.06188e-06
39 2 1.61225 2.7925 18.232 -2812.36 -2812.5 -1021.04 -1.61889e-05 -0.0237851 3.57501e-06
40 2 2.41837 4.18874 13.674 -2812.34 -2812.49 -1021.06 -1.49764e-07 -0.0353549 5.53209e-06
41 2 0.806124 4.18874 15.953 -2812.36 -2812.5 -1021.14 -2.81565e-06 -0.0237768 4.37374e-06
42 2 4.03062 4.18874 18.232 -2812.36 -2812.49 -1021.04 -2.42568e-05 -0.0237879 2.77224e-06
43 2 0 2.7925 20.511 -2804.07 -2804.22 -877.709 1.62704e-05 -0.0353415 -6.73416e-06
44 2 3.2245 2.7925 22.79 -1940.76 -1940.9 5336.46 -1.19957e-05 -0.0237762 1.48665e-06
45 2 1.61225 2.7925 25.069 1639.46 1639.45 -62.5457 -2.01482e-06 -0.000746035 -2.204e-07
46 2 2.41837 4.18874 20.511 -2804.07 -2804.22 -877.709 -1.84343e-05 -0.0353474 -4.01792e-06
47 2 0.806124 4.18874 22.79 -1940.76 -1940.9 5336.46 1.76708e-06 -0.0237783 -1.4556e-06
48 2 4.03062 4.18874 25.069 1639.46 1639.45 -62.5457 8.35383e-06 -0.000745281 6.21793e-07
49 2 0 5.58499 0 2596.05 2596.03 -99.025 -4.01924e-07 -0.00342735 7.59601e-07
50 2 3.2245 5.58499 2.279 -1940.76 -1940.9 5336.46 -1.44324e-06 -0.0237873 -3.12568e-07
51 2 1.61225 5.58499 4.55799 -2804.09 -2804.23 -877.784 -2.70118e-06 -0.0237805 -2.79807e-06
52 2 2.41837 6.98124 0 2596.05 2596.03 -99.025 -6.12376e-07 -0.00342974 -6.10337e-07
53 2 0.806124 6.98124 2.279 -1940.76 -1940.9 5336.46 -4.31955e-08 -0.0237773 -3.35733e-06
54 2 4.03062 6.98124 4.55799 -2804.09 -2804.23 -877.784 1.04029e-06 -0.0237858 5.21674e-07
55 2 0 5.58499 6.83699 -2812.33 -2812.48 -1020.96 -3.63074e-08 -0.0353511 -8.05505e-06
56 2 3.2245 5.58499 9.11598 -2812.36 -2812.5 -1021.14 1.53938e-05 -0.023747 5.57812e-06
57 2 1.61225 5.58499 11.395 -2812.36 -2812.5 -1021.14 3.66759e-06 -0.0237716 1.20574e-05
58 2 2.41837 6.98124 6.83699 -2812.33 -2812.48 -1020.96 1.08347e-05 -0.0353271 5.66228e-06
59 2 0.806124 6.98124 9.11598 -2812.36 -2812.5 -1021.14 3.02858e-07 -0.0237747 1.7323e-05
60 2 4.03062 6.98124 11.395 -2812.36 -2812.5 -1021.14 -2.83686e-05 -0.0238028 -2.89158e-05
61 2 0 5.58499 13.674 -2812.34 -2812.49 -1021.06 9.50409e-06 -0.0353358 3.03937e-06
62 2 3.2245 5.58499 15.953 -2812.36 -2812.5 -1021.14 -4.53863e-05 -0.0238081 -1.51951e-05
63 2 1.61225 5.58499 18.232 -2812.36 -2812.5 -1021.04 -1.62115e-05 -0.02378 -2.39637e-05
64 2 2.41837 6.98124 13.674 -2812.34 -2812.49 -1021.06 -4.52989e-05 -0.0353893 -2.07247e-05
65 2 0.806124 6.98124 15.953 -2812.36 -2812.5 -1021.14 -2.47504e-07 -0.0237739 -3.49073e-05
66 2 4.03062 6.98124 18.232 -2812.36 -2812.49 -1021.04 9.80637e-05 -0.0237066 6.41092e-05
67 2 0 5.58499 20.511 -2804.07 -2804.22 -877.709 -1.84396e-06 -0.0353535 -8.93956e-06
68 2 3.2245 5.58499 22.79 -1940.76 -1940.9 5336.46 3.94594e-05 -0.0237667 8.00459e-06
69 2 1.61225 5.58499 25.069 1639.46 1639.45 -62.5457 6.59847e-06 -0.000746216 3.29031e-06
70 2 2.41837 6.98124 20.511 -2804.07 -2804.22 -877.709 8.85906e-05 -0.0352995 2.04855e-05
71 2 0.806124 6.98124 22.79 -1940.76 -1940.9 5336.46 4.17216e-06 -0.0237788 1.28084e-05
72 2 4.03062 6.98124 25.069 1639.46 1639.45 -62.5457 6.35135e-06 -0.000753223 -5.65747e-06
73 2 0 8.37749 0 2596.05 2596.03 -99.025 8.06838e-07 -0.0034271 -1.45564e-06
74 2 3.2245 8.37749 2.279 -1940.76 -1940.9 5336.46 -2.29866e-06 -0.0237875 -6.38271e-06
75 2 1.61225 8.37749 4.55799 -2804.09 -2804.23 -877.784 2.38007e-06 -0.023776 -1.20731e-05
76 2 2.41837 9.77373 0 2596.05 2596.03 -99.025 -2.747e-06 -0.00342996 -1.84722e-06
77 2 0.806124 9.77373 2.279 -1940.76 -1940.9 5336.46 -4.41412e-08 -0.0237771 -1.13597e-05
78 2 4.03062 9.77373 4.55799 -2804.09 -2804.23 -877.784 1.44176e-05 -0.0237642 3.29993e-06
79 2 0 8.37749 6.83699 -2812.33 -2812.48 -1020.96 -8.65177e-06 -0.0353593 1.12987e-05
80 2 3.2245 8.37749 9.11598 -2812.36 -2812.5 -1021.14 6.24372e-06 -0.0237654 7.71747e-06
81 2 1.61225 8.37749 11.395 -2812.36 -2812.5 -1021.14 -1.63641e-05 -0.0237964 5.51204e-06
82 2 2.41837 9.77373 6.83699 -2812.33 -2812.48 -1020.96 1.98584e-05 -0.0353191 1.71e-05
83 2 0.806124 9.77373 9.11598 -2812.36 -2812.5 -1021.14 -3.98719e-07 -0.0237768 2.88303e-05
84 2 4.03062 9.77373 11.395 -2812.36 -2812.5 -1021.14 -5.20696e-05 -0.0238415 -3.14205e-05
85 2 0 8.37749 13.674 -2812.34 -2812.49 -1021.06 2.74527e-05 -0.0353195 -3.22475e-05
86 2 3.2245 8.37749 15.953 -2812.36 -2812.5 -1021.14 3.02565e-05 -0.0237304 2.60007e-05
87 2 1.61225 8.37749 18.232 -2812.36 -2812.49 -1021.04 6.05517e-05 -0.0237228 2.54834e-06
88 2 2.41837 9.77373 13.674 -2812.34 -2812.49 -1021.06 -3.06943e-05 -0.0353701 -2.57656e-05
89 2 0.806124 9.77373 15.953 -2812.36 -2812.5 -1021.14 5.14146e-06 -0.023767 -2.93347e-05
90 2 4.03062 9.77373 18.232 -2812.36 -2812.5 -1021.04 8.44339e-05 -0.0237283 1.88102e-05
91 2 0 8.37749 20.511 -2804.07 -2804.22 -877.708 -7.42718e-05 -0.0353838 3.36602e-05
92 2 3.2245 8.37749 22.79 -1940.76 -1940.9 5336.46 2.52181e-05 -0.0237877 -6.57812e-06
93 2 1.61225 8.37749 25.069 1639.46 1639.45 -62.5457 8.41639e-06 -0.000752113 4.38974e-07
94 2 2.41837 9.77373 20.511 -2804.07 -2804.22 -877.709 9.67199e-05 -0.0353205 2.1442e-05
95 2 0.806124 9.77373 22.79 -1940.76 -1940.9 5336.46 -1.87554e-06 -0.0237815 1.22717e-05
96 2 4.03062 9.77373 25.069 1639.46 1639.45 -62.5457 -3.66251e-05 -0.000751445 -1.44117e-06
97 2 0 11.17 0 2596.05 2596.03 -99.025 1.55788e-06 -0.00342705 -1.71003e-06
98 2 3.2245 11.17 2.279 -1940.76 -1940.9 5336.46 -2.42002e-06 -0.0237806 -8.22474e-06
99 2 1.61225 11.17 4.55799 -2804.09 -2804.23 -877.784 5.37002e-06 -0.0237663 -1.35441e-05
100 2 2.41837 12.5662 0 2596.05 2596.03 -99.025 -3.01217e-06 -0.00343 -1.34842e-06
101 2 0.806124 12.5662 2.279 -1940.76 -1940.9 5336.46 5.53979e-10 -0.0237769 -1.13827e-05
102 2 4.03062 12.5662 4.55799 -2804.09 -2804.23 -877.784 1.61579e-05 -0.0237417 3.43046e-06
103 2 0 11.17 6.83699 -2812.33 -2812.48 -1020.96 -9.63035e-06 -0.0353607 1.96e-05
104 2 3.2245 11.17 9.11598 -2812.36 -2812.5 -1021.14 -1.84597e-05 -0.0238192 -9.96299e-06
105 2 1.61225 11.17 11.395 -2812.36 -2812.5 -1021.14 -2.51272e-05 -0.0238155 -2.33099e-05
106 2 2.41837 12.5662 6.83699 -2812.33 -2812.48 -1020.96 1.10231e-05 -0.0353326 1.2967e-05
107 2 0.806124 12.5662 9.11598 -2812.36 -2812.5 -1021.14 -6.16509e-07 -0.0237779 8.64505e-06
108 2 4.03062 12.5662 11.395 -2812.36 -2812.5 -1021.13 -8.59573e-06 -0.0237791 1.6051e-05
109 2 0 11.17 13.674 -2812.34 -2812.49 -1021.06 4.58548e-06 -0.035346 -4.23704e-05
110 2 3.2245 11.17 15.953 -2812.36 -2812.5 -1021.14 0.000134187 -0.0236201 6.55154e-05
111 2 1.61225 11.17 18.232 -2812.36 -2812.49 -1021.04 0.000105706 -0.0236926 7.1569e-05
112 2 2.41837 12.5662 13.674 -2812.34 -2812.49 -1021.06 5.2977e-05 -0.0352437 1.14222e-05
113 2 0.806124 12.5662 15.953 -2812.36 -2812.5 -1021.13 6.36495e-06 -0.0237658 4.62008e-05
114 2 4.03062 12.5662 18.232 -2812.36 -2812.5 -1021.04 -9.91127e-05 -0.0239161 -8.71943e-05
115 2 0 11.17 20.511 -2804.07 -2804.22 -877.709 -4.04844e-05 -0.0353491 4.45628e-05
116 2 3.2245 11.17 22.79 -1940.76 -1940.9 5336.46 -7.92289e-05 -0.0238252 -2.1004e-05
117 2 1.61225 11.17 25.069 1639.46 1639.45 -62.5457 -1.30684e-05 -0.000754895 -5.93436e-06
118 2 2.41837 12.5662 20.511 -2804.07 -2804.22 -877.709 -7.78733e-05 -0.0354558 -2.17978e-05
119 2 0.806124 12.5662 22.79 -1940.76 -1940.9 5336.46 -3.25923e-06 -0.0237811 -5.38718e-06
120 2 4.03062 12.5662 25.069 1639.46 1639.45 -62.5456 -3.66054e-05 -0.000717634 1.77066e-05
121 2 0 13.9625 0 2596.05 2596.03 -99.0249 1.30497e-06 -0.00342706 -1.05176e-06
122 2 3.2245 13.9625 2.279 -1940.76 -1940.9 5336.46 -6.03687e-07 -0.0237709 -4.65295e-06
123 2 1.61225 13.9625 4.55799 -2804.09 -2804.23 -877.784 5.45232e-06 -0.0237582 -4.31608e-06
124 2 2.41837 15.3587 0 2596.05 2596.03 -99.025 -1.78223e-06 -0.00342973 -7.77522e-07
125 2 0.806124 15.3587 2.279 -1940.76 -1940.9 5336.46 2.00926e-08 -0.0237767 -6.17738e-06
126 2 4.03062 15.3587 4.55799 -2804.09 -2804.23 -877.784 1.14112e-05 -0.0237352 3.49907e-06
127 2 0 13.9625 6.83699 -2812.33 -2812.48 -1020.96 -3.17406e-06 -0.0353506 1.61938e-05
128 2 3.2245 13.9625 9.11598 -2812.36 -2812.5 -1021.14 -3.29886e-05 -0.0238654 -2.29418e-05
129 2 1.61225 13.9625 11.395 -2812.36 -2812.5 -1021.14 -1.43416e-05 -0.0237999 -4.00098e-05
130 2 2.41837 15.3587 6.83699 -2812.33 -2812.48 -1020.96 -1.10441e-06 -0.0353619 5.80179e-06
131 2 0.806124 15.3587 9.11598 -2812.36 -2812.5 -1021.14 -3.51347e-07 -0.0237776 -1.05264e-05
132 2 4.03062 15.3587 11.395 -2812.36 -2812.5 -1021.13 4.29771e-05 -0.023632 5.57551e-05
133 2 0 13.9625 13.674 -2812.34 -2812.49 -1021.06 -4.20151e-05 -0.0354318 -7.25425e-06
134 2 3.2245 13.9625 15.953 -2812.36 -2812.5 -1021.14 7.66217e-05 -0.0236846 2.33772e-05
135 2 1.61225 13.9625 18.232 -2812.36 -2812.5 -1021.04 2.13788e-05 -0.0237917 5.99074e-05
136 2 2.41837 15.3587 13.674 -2812.34 -2812.49 -1021.06 9.62884e-05 -0.0351077 4.11984e-05
137 2 0.806124 15.3587 15.953 -2812.36 -2812.5 -1021.13 4.9107e-06 -0.023773 8.29698e-05
138 2 4.03062 15.3587 18.232 -2812.36 -2812.5 -1021.04 -0.00030398 -0.0242591 -0.000180586
139 2 0 13.9625 20.511 -2804.07 -2804.22 -877.71 5.75922e-05 -0.0352703 -1.37375e-06
140 2 3.2245 13.9625 22.79 -1940.76 -1940.9 5336.46 -0.000216969 -0.0238375 -1.0067e-05
141 2 1.61225 13.9625 25.069 1639.46 1639.45 -62.5457 -2.76891e-05 -0.000744472 -5.22807e-06
142 2 2.41837 15.3587 20.511 -2804.07 -2804.22 -877.709 -0.00020165 -0.035599 -4.98806e-05
143 2 0.806124 15.3587 22.79 -1940.76 -1940.9 5336.46 -6.56746e-07 -0.023779 -5.80596e-06
144 2 4.03062 15.3587 25.069 1639.46 1639.45 -62.5456 4.97954e-05 -0.000686574 2.21543e-05
145 2 0 16.755 0 2596.05 2596.03 -99.0249 6.16332e-07 -0.00342724 -8.23768e-07
146 2 3.2245 16.755 2.279 -1940.76 -1940.9 5336.46 1.27024e-06 -0.0237627 -6.43186e-07
147 2 1.61225 16.755 4.55799 -2804.09 -2804.23 -877.784 3.91248e-06 -0.0237554 4.39619e-06
148 2 2.41837 18.1512 0 2596.05 2596.03 -99.025 -6.02902e-07 -0.00342914 -5.90481e-07
149 2 0.806124 18.1512 2.279 -1940.76 -1940.9 5336.46 -1.77204e-08 -0.0237767 -1.92507e-06
150 2 4.03062 18.1512 4.55799 -2804.09 -2804.23 -877.784 6.01852e-06 -0.0237407 2.96721e-06
151 2 0 16.755 6.83699 -2812.33 -2812.48 -1020.96 1.76566e-06 -0.0353348 1.02705e-05
152 2 3.2245 16.755 9.11598 -2812.36 -2812.5 -1021.14 -2.67131e-05 -0.0238789 -1.81043e-05
153 2 1.61225 16.755 11.395 -2812.36 -2812.5 -1021.14 2.09148e-07 -0.0237551 -2.99567e-05
154 2 2.41837 18.1512 6.83699 -2812.33 -2812.48 -1020.96 -4.20502e-06 -0.0353891 2.57417e-06
155 2 0.806124 18.1512 9.11598 -2812.36 -2812.5 -1021.14 4.03376e-08 -0.023777 -1.13271e-05
156 2 4.03062 18.1512 11.395 -2812.36 -2812.5 -1021.13 4.00015e-05 -0.023526 4.29212e-05
157 2 0 16.755 13.674 -2812.34 -2812.49 -1021.06 -5.27199e-05 -0.0355144 2.42459e-05
158 2 3.2245 16.755 15.953 -2812.36 -2812.5 -1021.14 3.94567e-07 -0.0238164 -1.3278e-05
159 2 1.61225 16.755 18.232 -2812.36 -2812.5 -1021.04 -3.5142e-05 -0.0238941 1.15625e-05
160 2 2.41837 18.1512 13.674 -2812.34 -2812.49 -1021.06 6.17083e-05 -0.0350616 3.10649e-05
161 2 0.806124 18.1512 15.953 -2812.36 -2812.5 -1021.14 3.51318e-06 -0.0237753 4.80469e-05
162 2 4.03062 18.1512 18.232 -2812.36 -2812.49 -1021.04 -0.00030109 -0.024557 -0.000148376
163 2 0 16.755 20.511 -2804.07 -2804.22 -877.71 7.13554e-05 -0.0352314 -2.10494e-05
164 2 3.2245 16.755 22.79 -1940.76 -1940.89 5336.46 -0.000101102 -0.0236441 4.84875e-05
165 2 1.61225 16.755 25.069 1639.46 1639.45 -62.5457 -1.79139e-05 -0.000725887 -5.25318e-07
166 2 2.41837 18.1512 20.511 -2804.07 -2804.22 -877.709 -0.000174225 -0.0356897 -4.09147e-05
167 2 0.806124 18.1512 22.79 -1940.76 -1940.9 5336.46 5.51241e-07 -0.0237775 -5.56346e-06
168 2 4.03062 18.1512 25.069 1639.47 1639.45 -62.5457 6.1911e-05 -0.00070723 7.6649e-06
169 2 0 19.5475 0 2596.05 2596.03 -99.0249 1.53296e-07 -0.00342749 -4.46087e-07
170 2 3.2245 19.5475 2.279 -1940.76 -1940.9 5336.46 9.2836e-07 -0.0237582 3.16012e-07
171 2 1.61225 19.5475 4.55799 -2804.09 -2804.23 -877.784 1.43813e-06 -0.0237557 3.57392e-06
172 2 2.41837 20.9437 0 2596.05 2596.03 -99.025 -1.39013e-08 -0.00342881 -5.50709e-08
173 2 0.806124 20.9437 2.279 -1940.76 -1940.9 5336.46 -4.46576e-08 -0.0237768 -6.89041e-08
174 2 4.03062 20.9437 4.55799 -2804.09 -2804.23 -877.784 4.22286e-07 -0.0237448 4.01603e-07
175 2 0 19.5475 6.83699 -2812.33 -2812.48 -1020.96 1.57654e-06 -0.0353234 3.84604e-06
176 2 3.2245 19.5475 9.11598 -2812.36 -2812.5 -1021.14 -1.00177e-05 -0.0238724 -6.28199e-06
177 2 1.61225 19.5475 11.395 -2812.36 -2812.5 -1021.13 2.55882e-06 -0.0237171 -1.03467e-05
178 2 2.41837 20.9437 6.83699 -2812.33 -2812.48 -1020.96 -8.24637e-08 -0.0354001 5.85853e-07
179 2 0.806124 20.9437 9.11598 -2812.36 -2812.5 -1021.14 5.85853e-07 -0.0237768 -6.83897e-07
180 2 4.03062 20.9437 11.395 -2812.36 -2812.5 -1021.13 1.53444e-06 -0.0234928 1.2018e-06
181 2 0 19.5475 13.674 -2812.34 -2812.49 -1021.06 -2.40695e-05 -0.035547 1.57284e-05
182 2 3.2245 19.5475 15.953 -2812.36 -2812.5 -1021.14 -9.77586e-06 -0.0239003 -9.92629e-06
183 2 1.61225 19.5475 18.232 -2812.36 -2812.5 -1021.04 -1.83704e-05 -0.0239301 -1.55158e-06
184 2 2.41837 20.9437 13.674 -2812.34 -2812.49 -1021.06 2.44716e-06 -0.0350598 1.50568e-06
185 2 0.806124 20.9437 15.953 -2812.36 -2812.5 -1021.14 -8.06708e-07 -0.0237716 2.44857e-06
186 2 4.03062 20.9437 18.232 -2812.36 -2812.49 -1021.04 -2.38011e-05 -0.0246129 -1.17251e-05
187 2 0 19.5475 20.511 -2804.07 -2804.22 -877.71 3.54079e-05 -0.0352101 -1.2092e-05
188 2 3.2245 19.5475 22.79 -1940.76 -1940.89 5336.46 1.24166e-05 -0.0234162 3.56598e-05
189 2 1.61225 19.5475 25.069 1639.46 1639.45 -62.5457 -3.87113e-06 -0.000711885 7.7316e-07
190 2 2.41837 20.9437 20.511 -2804.07 -2804.22 -877.708 -9.16129e-06 -0.0357052 -3.22168e-06
191 2 0.806124 20.9437 22.79 -1940.76 -1940.9 5336.46 1.559e-06 -0.0237767 -4.20725e-07
192 2 4.03062 20.9437 25.069 1639.47 1639.45 -62.5457 6.09834e-07 -0.000726134 7.87909e-07
193 2 0 22.34 0 2596.05 2596.03 -99.0249 -8.69987e-08 -0.00342753 3.70365e-07
194 2 3.2245 22.34 2.279 -1940.76 -1940.9 5336.46 -8.12925e-07 -0.023758 -4.15581e-07
195 2 1.61225 22.34 4.55799 -2804.09 -2804.23 -877.784 -1.44551e-06 -0.0237557 -2.86715e-06
196 2 2.41837 23.7362 0 2596.05 2596.03 -99.025 5.58874e-07 -0.00342912 5.36728e-07
197 2 0.806124 23.7362 2.279 -1940.76 -1940.9 5336.46 -2.52456e-09 -0.0237769 1.6346e-06
198 2 4.03062 23.7362 4.55799 -2804.09 -2804.23 -877.784 -5.27008e-06 -0.0237409 -2.55604e-06
199 2 0 22.34 6.83699 -2812.33 -2812.48 -1020.96 -1.04563e-06 -0.035322 -3.38456e-06
200 2 3.2245 22.34 9.11598 -2812.36 -2812.5 -1021.14 7.53499e-06 -0.0238728 4.30732e-06
201 2 1.61225 22.34 11.395 -2812.36 -2812.5 -1021.13 -3.20427e-06 -0.0237172 6.48807e-06
202 2 2.41837 23.7362 6.83699 -2812.33 -2812.48 -1020.96 4.26209e-06 -0.0353904 -1.53557e-06
203 2 0.806124 23.7362 9.11598 -2812.36 -2812.5 -1021.14 1.01054e-06 -0.0237767 1.05384e-05
204 2 4.03062 23.7362 11.395 -2812.36 -2812.5 -1021.13 -3.97364e-05 -0.0235138 -4.26592e-05
205 2 0 22.34 13.674 -2812.34 -2812.49 -1021.06 1.47451e-05 -0.035549 -1.22938e-05
206 2 3.2245 22.34 15.953 -2812.36 -2812.5 -1021.14 1.23766e-05 -0.023902 1.15287e-05
207 2 1.61225 22.34 18.232 -2812.36 -2812.5 -1021.04 1.93958e-05 -0.0239265 3.94795e-06
208 2 2.41837 23.7362 13.674 -2812.34 -2812.49 -1021.06 -5.87051e-05 -0.0350556 -3.05898e-05
209 2 0.806124 23.7362 15.953 -2812.36 -2812.5 -1021.14 -7.82667e-06 -0.0237678 -4.29876e-05
210 2 4.03062 23.7362 18.232 -2812.36 -2812.49 -1021.04 0.000283943 -0.0246062 0.000137704
211 2 0 22.34 20.511 -2804.07 -2804.22 -877.71 -2.29036e-05 -0.0352072 9.88713e-06
212 2 3.2245 22.34 22.79 -1940.76 -1940.89 5336.46 -4.53168e-05 -0.0234025 -3.97234e-05
213 2 1.61225 22.34 25.069 1639.46 1639.45 -62.5457 3.39933e-06 -0.000711619 -1.1323e-06
214 2 2.41837 23.7362 20.511 -2804.07 -2804.22 -877.709 0.000164331 -0.0356964 3.87395e-05
215 2 0.806124 23.7362 22.79 -1940.76 -1940.9 5336.46 1.65546e-06 -0.0237784 5.30199e-06
216 2 4.03062 23.7362 25.069 1639.47 1639.45 -62.5457 -6.52149e-05 -0.000704172 -6.37256e-06
217 2 0 25.1325 0 2596.05 2596.03 -99.0249 -4.72188e-07 -0.00342731 7.95876e-07
218 2 3.2245 25.1325 2.279 -1940.76 -1940.9 5336.46 -1.33544e-06 -0.0237621 2.37108e-07
219 2 1.61225 25.1325 4.55799 -2804.09 -2804.23 -877.784 -3.93508e-06 -0.0237554 -4.85429e-06
220 2 2.41837 26.5287 0 2596.05 2596.03 -99.025 1.71148e-06 -0.0034297 7.51438e-07
221 2 0.806124 26.5287 2.279 -1940.76 -1940.9 5336.46 8.24677e-08 -0.0237771 5.57011e-06
222 2 4.03062 26.5287 4.55799 -2804.09 -2804.23 -877.784 -1.08866e-05 -0.0237346 -3.91905e-06
223 2 0 25.1325 6.83699 -2812.33 -2812.48 -1020.96 -2.17067e-06 -0.0353312 -9.72639e-06
224 2 3.2245 25.1325 9.11598 -2812.36 -2812.5 -1021.14 2.5339e-05 -0.0238812 1.74496e-05
225 2 1.61225 25.1325 11.395 -2812.36 -2812.5 -1021.14 -3.67629e-07 -0.0237557 2.72152e-05
226 2 2.41837 26.5287 6.83699 -2812.33 -2812.48 -1020.96 1.67816e-06 -0.0353638 -5.01954e-06
227 2 0.806124 26.5287 9.11598 -2812.36 -2812.5 -1021.14 6.12863e-07 -0.0237759 1.16302e-05
228 2 4.03062 26.5287 11.395 -2812.36 -2812.5 -1021.13 -4.85683e-05 -0.0236136 -5.96381e-05
229 2 0 25.1325 13.674 -2812.34 -2812.49 -1021.06 4.81427e-05 -0.0355253 -2.34665e-05
230 2 3.2245 25.1325 15.953 -2812.36 -2812.5 -1021.14 4.98151e-06 -0.0238217 1.53115e-05
231 2 1.61225 25.1325 18.232 -2812.36 -2812.5 -1021.04 3.40816e-05 -0.0238874 -6.55886e-06
232 2 2.41837 26.5287 13.674 -2812.34 -2812.49 -1021.06 -9.92453e-05 -0.0350941 -4.61348e-05
233 2 0.806124 26.5287 15.953 -2812.36 -2812.5 -1021.13 -1.1147e-05 -0.0237677 -8.20265e-05
234 2 4.03062 26.5287 18.232 -2812.36 -2812.5 -1021.04 0.00032576 -0.0243111 0.000188734
235 2 0 25.1325 20.511 -2804.07 -2804.22 -877.71 -6.89236e-05 -0.0352216 2.04919e-05
236 2 3.2245 25.1325 22.79 -1940.76 -1940.89 5336.46 8.24915e-05 -0.0236258 -5.49093e-05
237 2 1.61225 25.1325 25.069 1639.46 1639.45 -62.5457 1.80972e-05 -0.00072565 -1.40187e-07
238 2 2.41837 26.5287 20.511 -2804.07 -2804.22 -877.709 0.000202422 -0.0356045 5.29166e-05
239 2 0.806124 26.5287 22.79 -1940.76 -1940.9 5336.46 7.9547e-07 -0.0237792 5.56192e-06
240 2 4.03062 26.5287 25.069 1639.46 1639.45 -62.5456 -5.93552e-05 -0.000678316 -2.32471e-05
241 2 0 27.925 0 2596.05 2596.03 -99.0249 -1.13836e-06 -0.0034271 9.74621e-07
242 2 3.2245 27.925 2.279 -1940.76 -1940.9 5336.46 4.15437e-07 -0.0237701 4.01147e-06
243 2 1.61225 27.925 4.55799 -2804.09 -2804.23 -877.784 -5.48437e-06 -0.0237582 2.84489e-06
244 2 2.41837 29.3212 0 2596.05 2596.03 -99.025 2.97013e-06 -0.00342999 1.25219e-06
245 2 0.806124 29.3212 2.279 -1940.76 -1940.9 5336.46 1.02697e-07 -0.0237773 1.08836e-05
246 2 4.03062 29.3212 4.55799 -2804.09 -2804.23 -877.784 -1.60937e-05 -0.0237395 -4.19294e-06
247 2 0 27.925 6.83699 -2812.33 -2812.48 -1020.96 1.55428e-06 -0.0353468 -1.5306e-05
248 2 3.2245 27.925 9.11598 -2812.36 -2812.5 -1021.14 3.39616e-05 -0.0238706 2.49412e-05
249 2 1.61225 27.925 11.395 -2812.36 -2812.5 -1021.14 1.4864e-05 -0.023801 4.13483e-05
250 2 2.41837 29.3212 6.83699 -2812.33 -2812.48 -1020.96 -1.03032e-05 -0.0353338 -1.2716e-05
251 2 0.806124 29.3212 9.11598 -2812.36 -2812.5 -1021.14 -5.1029e-07 -0.0237746 -5.77156e-06
252 2 4.03062 29.3212 11.395 -2812.36 -2812.5 -1021.13 3.11449e-06 -0.0237703 -1.94022e-05
253 2 0 27.925 13.674 -2812.34 -2812.49 -1021.06 4.88009e-05 -0.0354531 3.36323e-06
254 2 3.2245 27.925 15.953 -2812.36 -2812.5 -1021.14 -7.16772e-05 -0.0236872 -2.2482e-05
255 2 1.61225 27.925 18.232 -2812.36 -2812.5 -1021.04 -2.21018e-05 -0.023789 -5.64456e-05
256 2 2.41837 29.3212 13.674 -2812.34 -2812.49 -1021.06 -6.0038e-05 -0.0352305 -1.64666e-05
257 2 0.806124 29.3212 15.953 -2812.36 -2812.5 -1021.13 -3.4437e-06 -0.0237732 -5.45925e-05
258 2 4.03062 29.3212 18.232 -2812.36 -2812.5 -1021.04 0.00011425 -0.0239339 9.27793e-05
259 2 0 27.925 20.511 -2804.07 -2804.22 -877.71 -7.26132e-05 -0.0352515 4.36046e-06
260 2 3.2245 27.925 22.79 -1940.76 -1940.9 5336.46 0.000236125 -0.0238418 1.04285e-05
261 2 1.61225 27.925 25.069 1639.46 1639.45 -62.5457 2.80622e-05 -0.000744661 4.98543e-06
262 2 2.41837 29.3212 20.511 -2804.07 -2804.22 -877.709 8.64044e-05 -0.0354623 2.52682e-05
263 2 0.806124 29.3212 22.79 -1940.76 -1940.9 5336.46 -1.58379e-06 -0.0237791 6.09964e-06
264 2 4.03062 29.3212 25.069 1639.46 1639.45 -62.5456 3.96239e-05 -0.000711496 -2.02244e-05
265 2 0 30.7174 0 2596.05 2596.03 -99.025 -1.56984e-06 -0.00342706 1.61872e-06
266 2 3.2245 30.7174 2.279 -1940.76 -1940.9 5336.46 2.34498e-06 -0.0237799 8.06313e-06
267 2 1.61225 30.7174 4.55799 -2804.09 -2804.23 -877.784 -5.35247e-06 -0.0237664 1.27714e-05
268 2 2.41837 32.1137 0 2596.05 2596.03 -99.025 2.80935e-06 -0.00342995 1.84208e-06
269 2 0.806124 32.1137 2.279 -1940.76 -1940.9 5336.46 3.19082e-08 -0.0237774 1.17319e-05
270 2 4.03062 32.1137 4.55799 -2804.09 -2804.23 -877.784 -1.52882e-05 -0.0237612 -3.53882e-06
271 2 0 30.7174 6.83699 -2812.33 -2812.48 -1020.96 8.46296e-06 -0.0353592 -1.91393e-05
272 2 3.2245 30.7174 9.11598 -2812.36 -2812.5 -1021.14 2.11392e-05 -0.0238254 1.28856e-05
273 2 1.61225 30.7174 11.395 -2812.36 -2812.5 -1021.14 2.55575e-05 -0.023816 2.80856e-05
274 2 2.41837 32.1137 6.83699 -2812.33 -2812.48 -1020.96 -1.99576e-05 -0.0353189 -1.82605e-05
275 2 0.806124 32.1137 9.11598 -2812.36 -2812.5 -1021.14 -1.14988e-06 -0.0237737 -2.77167e-05
276 2 4.03062 32.1137 11.395 -2812.36 -2812.5 -1021.14 5.45559e-05 -0.0238473 3.32784e-05
277 2 0 30.7174 13.674 -2812.34 -2812.49 -1021.06 6.455e-06 -0.0353622 3.86937e-05
278 2 3.2245 30.7174 15.953 -2812.36 -2812.5 -1021.14 -0.000146736 -0.0236036 -7.31626e-05
279 2 1.61225 30.7174 18.232 -2812.36 -2812.49 -1021.04 -0.000108155 -0.0236907 -8.19692e-05
280 2 2.41837 32.1137 13.674 -2812.34 -2812.49 -1021.06 2.84006e-05 -0.0353669 2.7979e-05
281 2 0.806124 32.1137 15.953 -2812.36 -2812.5 -1021.14 4.7192e-06 -0.0237779 2.36435e-05
282 2 4.03062 32.1137 18.232 -2812.36 -2812.5 -1021.04 -8.44652e-05 -0.0237291 -1.70671e-05
283 2 0 30.7174 20.511 -2804.07 -2804.22 -877.709 1.45798e-05 -0.0353277 -3.80647e-05
284 2 3.2245 30.7174 22.79 -1940.76 -1940.9 5336.46 9.00112e-05 -0.0238293 2.25894e-05
285 2 1.61225 30.7174 25.069 1639.46 1639.45 -62.5457 1.28959e-05 -0.00075505 6.79642e-06
286 2 2.41837 32.1137 20.511 -2804.07 -2804.22 -877.709 -9.46562e-05 -0.035324 -2.42669e-05
287 2 0.806124 32.1137 22.79 -1940.76 -1940.9 5336.46 -5.10343e-06 -0.0237774 -1.02647e-05
288 2 4.03062 32.1137 25.069 1639.46 1639.45 -62.5457 4.41067e-05 -0.000751423 1.15918e-06
289 2 0 33.5099 0 2596.05 2596.03 -99.025 -1.0712e-06 -0.0034271 1.58042e-06
290 2 3.2245 33.5099 2.279 -1940.76 -1940.9 5336.46 2.36519e-06 -0.0237872 7.1456e-06
291 2 1.61225 33.5099 4.55799 -2804.09 -2804.23 -877.784 -2.30013e-06 -0.0237761 1.29457e-05
292 2 2.41837 34.9062 0 2596.05 2596.03 -99.025 7.49397e-07 -0.00342975 8.8122e-07
293 2 0.806124 34.9062 2.279 -1940.76 -1940.9 5336.46 -1.35329e-08 -0.0237773 4.50536e-06
294 2 4.03062 34.9062 4.55799 -2804.09 -2804.23 -877.784 -2.65341e-06 -0.0237844 -2.37989e-07
295 2 0 33.5099 6.83699 -2812.33 -2812.48 -1020.96 9.88133e-06 -0.0353606 -1.27593e-05
296 2 3.2245 33.5099 9.11598 -2812.36 -2812.5 -1021.14 -4.51939e-06 -0.0237688 -7.87399e-06
297 2 1.61225 33.5099 11.395 -2812.36 -2812.5 -1021.14 1.62885e-05 -0.0237962 -2.50755e-06
298 2 2.41837 34.9062 6.83699 -2812.33 -2812.48 -1020.96 -1.18517e-05 -0.0353261 -8.13259e-06
299 2 0.806124 34.9062 9.11598 -2812.36 -2812.5 -1021.14 -5.54664e-07 -0.0237742 -2.04281e-05
300 2 4.03062 34.9062 11.395 -2812.36 -2812.5 -1021.14 3.47125e-05 -0.0238105 3.1979e-05
301 2 0 33.5099 13.674 -2812.34 -2812.49 -1021.06 -2.62135e-05 -0.0353207 3.37412e-05
302 2 3.2245 33.5099 15.953 -2812.36 -2812.5 -1021.14 -4.41304e-05 -0.0237159 -3.17813e-05
303 2 1.61225 33.5099 18.232 -2812.36 -2812.49 -1021.04 -6.18192e-05 -0.0237217 -1.14891e-05
304 2 2.41837 34.9062 13.674 -2812.34 -2812.49 -1021.06 4.81752e-05 -0.0353919 2.5909e-05
305 2 0.806124 34.9062 15.953 -2812.36 -2812.5 -1021.14 2.98147e-06 -0.0237768 3.80368e-05
306 2 4.03062 34.9062 18.232 -2812.36 -2812.49 -1021.04 -0.00012096 -0.0236903 -7.27442e-05
307 2 0 33.5099 20.511 -2804.07 -2804.22 -877.708 7.97587e-05 -0.0353832 -3.49095e-05
308 2 3.2245 33.5099 22.79 -1940.76 -1940.9 5336.46 -2.20032e-05 -0.0237905 7.49795e-06
309 2 1.61225 33.5099 25.069 1639.46 1639.45 -62.5457 -8.75014e-06 -0.000752116 4.37972e-07
310 2 2.41837 34.9062 20.511 -2804.07 -2804.22 -877.709 -0.000100709 -0.0352941 -2.68866e-05
311 2 0.806124 34.9062 22.79 -1940.76 -1940.9 5336.46 -5.2722e-07 -0.0237782 -1.43237e-05
312 2 4.03062 34.9062 25.069 1639.46 1639.45 -62.5457 -5.6627e-06 -0.000754772 6.49985e-06
313 2 0 36.3024 0 2596.05 2596.03 -99.025 1.16864e-07 -0.00342725 -4.47714e-07
314 2 3.2245 36.3024 2.279 -1940.76 -1940.9 5336.46 1.47343e-06 -0.0237876 1.31148e-06
315 2 1.61225 36.3024 4.55799 -2804.09 -2804.23 -877.784 2.75957e-06 -0.0237805 4.01741e-06
316 2 2.41837 37.6987 0 2596.05 2596.03 -99.025 -1.43436e-06 -0.00342897 -1.44029e-06
317 2 0.806124 37.6987 2.279 -1940.76 -1940.9 5336.46 1.80113e-08 -0.023777 -4.83528e-06
318 2 4.03062 37.6987 4.55799 -2804.09 -2804.23 -877.784 1.27706e-05 -0.0237893 3.71128e-06
319 2 0 36.3024 6.83699 -2812.33 -2812.48 -1020.96 2.27425e-06 -0.0353532 5.69555e-06
320 2 3.2245 36.3024 9.11598 -2812.36 -2812.5 -1021.14 -1.60541e-05 -0.023746 -8.78084e-06
321 2 1.61225 36.3024 11.395 -2812.36 -2812.5 -1021.14 -3.86053e-06 -0.0237715 -1.38765e-05
322 2 2.41837 37.6987 6.83699 -2812.33 -2812.48 -1020.96 5.29134e-06 -0.0353422 1.07224e-05
323 2 0.806124 37.6987 9.11598 -2812.36 -2812.5 -1021.14 1.70794e-07 -0.0237751 1.05502e-05
324 2 4.03062 37.6987 11.395 -2812.36 -2812.5 -1021.14 -1.50168e-05 -0.0237642 1.91151e-06
325 2 0 36.3024 13.674 -2812.34 -2812.49 -1021.06 -1.59915e-05 -0.0353306 6.1219e-07
326 2 3.2245 36.3024 15.953 -2812.36 -2812.5 -1021.14 4.80873e-05 -0.0238089 1.87017e-05
327 2 1.61225 36.3024 18.232 -2812.36 -2812.5 -1021.04 1.70302e-05 -0.0237804 2.72588e-05
328 2 2.41837 37.6987 13.674 -2812.34 -2812.49 -1021.06 3.03641e-06 -0.0353571 -3.90885e-06
329 2 0.806124 37.6987 15.953 -2812.36 -2812.5 -1021.14 -7.40158e-07 -0.0237747 7.15511e-08
330 2 4.03062 37.6987 18.232 -2812.36 -2812.49 -1021.04 2.26868e-05 -0.0237856 -3.90594e-06
331 2 0 36.3024 20.511 -2804.07 -2804.22 -877.709 1.71391e-05 -0.0353608 5.67548e-06
332 2 3.2245 36.3024 22.79 -1940.76 -1940.9 5336.46 -4.77197e-05 -0.0237655 -9.36053e-06
333 2 1.61225 36.3024 25.069 1639.46 1639.45 -62.5457 -6.61316e-06 -0.00074615 -3.71113e-06
334 2 2.41837 37.6987 20.511 -2804.07 -2804.22 -877.709 1.59744e-05 -0.0353456 4.7066e-06