ITEM: TIMESTEP
0
ITEM: NUMBER OF ATOMS
3074
ITEM: BOX BOUNDS pp pp pp
0.0000000000000000e+00 3.8693948398131120e+01
0.0000000000000000e+00 4.4679925159782847e+01
0.0000000000000000e+00 6.0000000000000000e+01
ITEM: ATOMS id type x y z v_stress_xx v_stress_yy v_stress_zz v_stress_xy v_stress_xz v_stress_yz
1 2 0 0 0 2596.05 2596.03 -99.0249 1.86289e-06 -0.00342627 -2.15731e-06
2 2 3.2245 0 2.279 -1940.76 -1940.9 5336.46 4.95202e-07 -0.023781 -5.37677e-06
3 2 1.61225 0 4.55799 -2804.09 -2804.23 -877.783 -1.27906e-07 -0.0237749 -2.20705e-06
4 2 2.41837 1.39625 0 2596.05 2596.03 -99.0249 -1.49623e-06 -0.00342842 -4.04445e-06
5 2 0.806124 1.39625 2.279 -1940.76 -1940.9 5336.46 -4.7627e-07 -0.0237767 -1.03752e-05
6 2 4.03062 1.39625 4.55799 -2804.09 -2804.23 -877.783 1.27202e-05 -0.0237735 -1.87619e-06
7 2 0 0 6.83699 -2812.33 -2812.48 -1020.96 -4.16872e-06 -0.0353549 8.60022e-06
8 2 3.2245 0 9.11598 -2812.36 -2812.5 -1021.14 -3.76719e-06 -0.0237698 6.08852e-06
9 2 1.61225 0 11.395 -2812.36 -2812.5 -1021.13 2.1257e-07 -0.0237747 -6.46189e-07
10 2 2.41837 1.39625 6.83699 -2812.33 -2812.48 -1020.96 2.90132e-06 -0.0353458 1.57442e-05
11 2 0.806124 1.39625 9.11598 -2812.36 -2812.5 -1021.14 2.86732e-06 -0.0237752 1.19497e-05
12 2 4.03062 1.39625 11.395 -2812.36 -2812.5 -1021.13 -6.07806e-06 -0.0237696 6.51522e-06
13 2 0 0 13.674 -2812.34 -2812.49 -1021.06 -1.29262e-06 -0.0353456 -7.92546e-07
14 2 3.2245 0 15.953 -2812.36 -2812.5 -1021.14 6.65759e-06 -0.0237748 5.75888e-07
15 2 1.61225 0 18.232 -2812.36 -2812.49 -1021.04 -6.48646e-07 -0.0237751 2.97238e-06
16 2 2.41837 1.39625 13.674 -2812.34 -2812.49 -1021.06 1.93918e-06 -0.035344 -1.43819e-06
17 2 0.806124 1.39625 15.953 -2812.36 -2812.5 -1021.14 -4.25504e-06 -0.0237759 3.52564e-07
18 2 4.03062 1.39625 18.232 -2812.36 -2812.49 -1021.04 -8.16514e-06 -0.023784 -8.73374e-06
19 2 0 0 20.511 -2804.07 -2804.22 -877.708 1.22879e-06 -0.0353449 -1.24878e-06
20 2 3.2245 0 22.79 -1940.76 -1940.9 5336.46 -3.80511e-06 -0.0237801 -1.28652e-06
21 2 1.61225 0 25.069 1639.46 1639.45 -62.5456 -1.60438e-08 -0.000747144 -5.44709e-07
22 2 2.41837 1.39625 20.511 -2804.07 -2804.22 -877.708 -6.16027e-06 -0.03535 -2.77833e-06
23 2 0.806124 1.39625 22.79 -1940.76 -1940.9 5336.46 4.59094e-06 -0.0237778 -1.95766e-06
24 2 4.03062 1.39625 25.069 1639.46 1639.45 -62.5456 -3.40835e-06 -0.000746703 4.63163e-07
25 2 0 2.7925 0 2596.05 2596.03 -99.0249 3.17985e-06 -0.00342846 -3.55775e-06
26 2 3.2245 2.7925 2.279 -1940.76 -1940.9 5336.46 1.03972e-06 -0.0237737 -8.94327e-06
27 2 1.61225 2.7925 4.55799 -2804.09 -2804.23 -877.783 -1.60372e-07 -0.0237751 -5.07316e-06
28 2 2.41837 4.18874 0 2596.05 2596.03 -99.0249 -1.06556e-06 -0.00342709 -3.02556e-06
29 2 0.806124 4.18874 2.279 -1940.76 -1940.9 5336.46 -5.79609e-07 -0.0237808 -7.06115e-06
30 2 4.03062 4.18874 4.55799 -2804.09 -2804.23 -877.784 6.0018e-06 -0.0237712 -5.83213e-06
31 2 0 2.7925 6.83699 -2812.33 -2812.48 -1020.96 -4.87927e-06 -0.0353417 9.59549e-06
32 2 3.2245 2.7925 9.11598 -2812.36 -2812.5 -1021.14 -1.58089e-06 -0.0237767 1.19718e-05
33 2 1.61225 2.7925 11.395 -2812.36 -2812.5 -1021.13 7.55677e-08 -0.0237751 8.6697e-06
34 2 2.41837 4.18874 6.83699 -2812.33 -2812.48 -1020.96 7.09521e-07 -0.0353509 4.08658e-06
35 2 0.806124 4.18874 9.11598 -2812.36 -2812.5 -1021.14 -2.16406e-06 -0.0237742 1.00622e-05
36 2 4.03062 4.18874 11.395 -2812.36 -2812.5 -1021.13 9.23398e-06 -0.0237662 1.45705e-05
37 2 0 2.7925 13.674 -2812.34 -2812.49 -1021.06 -3.03852e-06 -0.0353539 4.75485e-06
38 2 3.2245 2.7925 15.953 -2812.36 -2812.5 -1021.14 -7.09461e-06 -0.0237794 -4.38178e-06
39 2 1.61225 2.7925 18.232 -2812.36 -2812.49 -1021.04 -7.63274e-08 -0.0237746 -7.20306e-06
40 2 2.41837 4.18874 13.674 -2812.34 -2812.49 -1021.06 -8.32615e-07 -0.0353467 1.0732e-05
41 2 0.806124 4.18874 15.953 -2812.36 -2812.5 -1021.14 1.33583e-05 -0.0237668 -6.12075e-06
42 2 4.03062 4.18874 18.232 -2812.36 -2812.49 -1021.04 -4.35483e-05 -0.0237916 -1.65268e-05
43 2 0 2.7925 20.511 -2804.07 -2804.22 -877.708 2.47727e-05 -0.0353382 -8.70597e-06
44 2 3.2245 2.7925 22.79 -1940.76 -1940.9 5336.46 -9.92049e-06 -0.0237788 -1.45809e-06
45 2 1.61225 2.7925 25.069 1639.46 1639.45 -62.5456 1.31992e-07 -0.000747243 6.23094e-08
46 2 2.41837 4.18874 20.511 -2804.07 -2804.22 -877.708 -1.31145e-05 -0.0353483 -1.40467e-05
47 2 0.806124 4.18874 22.79 -1940.76 -1940.9 5336.46 2.14038e-06 -0.0237816 -1.0086e-06
48 2 4.03062 4.18874 25.069 1639.46 1639.45 -62.5456 4.52857e-06 -0.000745224 1.47433e-06
49 2 0 5.58499 0 2596.05 2596.03 -99.0249 5.14111e-07 -0.00343095 -5.79358e-07
50 2 3.2245 5.58499 2.279 -1940.76 -1940.9 5336.46 8.30351e-07 -0.0237693 -1.42673e-06
51 2 1.61225 5.58499 4.55799 -2804.09 -2804.23 -877.784 1.68964e-08 -0.023775 -3.49535e-06
52 2 2.41837 6.98124 0 2596.05 2596.03 -99.0249 6.55413e-07 -0.00342618 1.05958e-06
53 2 0.806124 6.98124 2.279 -1940.76 -1940.9 5336.46 -3.12619e-07 -0.0237809 3.95678e-06
54 2 4.03062 6.98124 4.55799 -2804.09 -2804.23 -877.784 -5.23851e-06 -0.0237737 -2.92704e-06
55 2 0 5.58499 6.83699 -2812.33 -2812.48 -1020.96 -4.15925e-07 -0.0353397 -1.6483e-06
56 2 3.2245 5.58499 9.11598 -2812.36 -2812.5 -1021.14 9.42942e-06 -0.0237709 1.0527e-05
57 2 1.61225 5.58499 11.395 -2812.36 -2812.5 -1021.13 -6.90802e-08 -0.0237755 2.08457e-05
58 2 2.41837 6.98124 6.83699 -2812.33 -2812.48 -1020.96 -1.60781e-07 -0.035347 -6.5673e-06
59 2 0.806124 6.98124 9.11598 -2812.36 -2812.5 -1021.13 -6.59155e-06 -0.0237804 7.87638e-06
60 2 4.03062 6.98124 11.395 -2812.36 -2812.5 -1021.13 -7.47682e-06 -0.0237937 -5.89453e-06
61 2 0 5.58499 13.674 -2812.34 -2812.49 -1021.06 1.83663e-05 -0.0353284 -3.93507e-06
62 2 3.2245 5.58499 15.953 -2812.36 -2812.5 -1021.14 -3.56499e-05 -0.0237975 -1.91204e-05
63 2 1.61225 5.58499 18.232 -2812.36 -2812.49 -1021.04 6.55427e-07 -0.0237743 -2.90258e-05
64 2 2.41837 6.98124 13.674 -2812.34 -2812.49 -1021.06 -1.709e-05 -0.0353654 -9.82047e-06
65 2 0.806124 6.98124 15.953 -2812.36 -2812.5 -1021.14 1.82849e-05 -0.0237623 -2.63394e-05
66 2 4.03062 6.98124 18.232 -2812.36 -2812.49 -1021.04 5.95468e-05 -0.0237231 3.00281e-05
67 2 0 5.58499 20.511 -2804.07 -2804.22 -877.708 -1.64849e-05 -0.0353657 2.82255e-06
68 2 3.2245 5.58499 22.79 -1940.76 -1940.9 5336.46 2.47294e-05 -0.0237684 6.32503e-06
69 2 1.61225 5.58499 25.069 1639.46 1639.45 -62.5456 -7.32425e-08 -0.00074728 3.01541e-06
70 2 2.41837 6.98124 20.511 -2804.07 -2804.22 -877.708 3.93948e-05 -0.0353228 9.06305e-06
71 2 0.806124 6.98124 22.79 -1940.76 -1940.9 5336.46 -3.08652e-05 -0.0237866 1.10717e-05
72 2 4.03062 6.98124 25.069 1639.46 1639.45 -62.5456 1.34198e-05 -0.00075159 -2.59258e-06
73 2 0 8.37749 0 2596.05 2596.03 -99.0249 -2.5923e-06 -0.00343155 2.43986e-06
74 2 3.2245 8.37749 2.279 -1940.76 -1940.9 5336.46 2.25359e-07 -0.0237729 6.37e-06
75 2 1.61225 8.37749 4.55799 -2804.09 -2804.23 -877.784 4.06908e-08 -0.0237749 1.79052e-06
76 2 2.41837 9.77373 0 2596.05 2596.03 -99.0249 1.60495e-06 -0.00342648 3.44162e-06
77 2 0.806124 9.77373 2.279 -1940.76 -1940.9 5336.46 1.31343e-07 -0.0237775 8.9191e-06
78 2 4.03062 9.77373 4.55799 -2804.09 -2804.23 -877.783 -4.91021e-06 -0.0237721 7.23541e-06
79 2 0 8.37749 6.83699 -2812.33 -2812.48 -1020.96 -2.95617e-06 -0.0353551 9.21851e-07
80 2 3.2245 8.37749 9.11598 -2812.36 -2812.5 -1021.14 7.17001e-06 -0.0237685 6.86823e-06
81 2 1.61225 8.37749 11.395 -2812.36 -2812.5 -1021.13 7.83562e-07 -0.0237747 4.80986e-06
82 2 2.41837 9.77373 6.83699 -2812.33 -2812.48 -1020.96 3.18994e-06 -0.0353376 3.50487e-06
83 2 0.806124 9.77373 9.11598 -2812.36 -2812.5 -1021.14 -3.36435e-07 -0.0237753 8.725e-06
84 2 4.03062 9.77373 11.395 -2812.36 -2812.5 -1021.13 -4.34756e-05 -0.0238366 -3.22931e-05
85 2 0 8.37749 13.674 -2812.34 -2812.49 -1021.06 3.81162e-05 -0.0353047 -2.76243e-05
86 2 3.2245 8.37749 15.953 -2812.36 -2812.5 -1021.13 5.26126e-06 -0.0237605 -1.17897e-05
87 2 1.61225 8.37749 18.232 -2812.36 -2812.49 -1021.04 -2.31701e-06 -0.0237762 -5.80726e-06
88 2 2.41837 9.77373 13.674 -2812.34 -2812.49 -1021.06 -1.83582e-05 -0.0353639 -4.12168e-05
89 2 0.806124 9.77373 15.953 -2812.36 -2812.5 -1021.13 -2.80354e-05 -0.0238099 -1.82417e-05
90 2 4.03062 9.77373 18.232 -2812.36 -2812.49 -1021.04 0.000153859 -0.0236684 4.76887e-05
91 2 0 8.37749 20.511 -2804.07 -2804.22 -877.708 -0.000117067 -0.0353983 2.9065e-05
92 2 3.2245 8.37749 22.79 -1940.76 -1940.9 5336.46 4.57828e-05 -0.0237805 5.39358e-06
93 2 1.61225 8.37749 25.069 1639.46 1639.45 -62.5456 -3.3864e-07 -0.00074701 1.33114e-06
94 2 2.41837 9.77373 20.511 -2804.07 -2804.22 -877.708 7.30909e-05 -0.0353218 4.65977e-05
95 2 0.806124 9.77373 22.79 -1940.76 -1940.9 5336.46 -1.63848e-05 -0.0237677 7.92541e-06
96 2 4.03062 9.77373 25.069 1639.46 1639.45 -62.5456 -1.87724e-05 -0.000757481 -3.77327e-06
97 2 0 11.17 0 2596.05 2596.03 -99.0249 -3.02433e-06 -0.00342978 3.03727e-06
98 2 3.2245 11.17 2.279 -1940.76 -1940.9 5336.46 -5.26707e-07 -0.0237791 7.30997e-06
99 2 1.61225 11.17 4.55799 -2804.09 -2804.23 -877.783 -1.26721e-07 -0.023775 5.58483e-06
100 2 2.41837 12.5662 0 2596.05 2596.03 -99.0249 1.2292e-06 -0.00342778 3.6209e-06
101 2 0.806124 12.5662 2.279 -1940.76 -1940.9 5336.46 5.64758e-07 -0.0237745 6.75389e-06
102 2 4.03062 12.5662 4.55799 -2804.09 -2804.23 -877.783 1.37782e-06 -0.0237616 1.25525e-05
103 2 0 11.17 6.83699 -2812.33 -2812.48 -1020.96 -7.43604e-06 -0.035367 1.05373e-05
104 2 3.2245 11.17 9.11598 -2812.36 -2812.5 -1021.14 -8.91046e-06 -0.0237942 -2.02783e-06
105 2 1.61225 11.17 11.395 -2812.36 -2812.5 -1021.14 9.69445e-07 -0.0237735 -2.40321e-05
106 2 2.41837 12.5662 6.83699 -2812.33 -2812.48 -1020.96 4.57343e-06 -0.0353349 1.34045e-05
107 2 0.806124 12.5662 9.11598 -2812.36 -2812.5 -1021.14 8.93295e-06 -0.0237545 4.00543e-07
108 2 4.03062 12.5662 11.395 -2812.36 -2812.5 -1021.13 -3.70895e-05 -0.0238283 -2.36261e-05
109 2 0 11.17 13.674 -2812.34 -2812.49 -1021.06 -2.91233e-06 -0.0353675 -1.74939e-05
110 2 3.2245 11.17 15.953 -2812.36 -2812.5 -1021.13 0.000103512 -0.0236444 3.36489e-05
111 2 1.61225 11.17 18.232 -2812.36 -2812.49 -1021.04 -3.00273e-06 -0.0237796 6.97368e-05
112 2 2.41837 12.5662 13.674 -2812.34 -2812.49 -1021.06 1.23949e-05 -0.0353097 -3.21587e-05
113 2 0.806124 12.5662 15.953 -2812.36 -2812.5 -1021.13 -8.1914e-05 -0.0238914 3.67341e-05
114 2 4.03062 12.5662 18.232 -2812.36 -2812.5 -1021.04 1.04043e-05 -0.0238116 -2.63497e-05
115 2 0 11.17 20.511 -2804.07 -2804.22 -877.709 -1.56253e-05 -0.0353106 -5.1061e-07
116 2 3.2245 11.17 22.79 -1940.76 -1940.9 5336.46 -3.79848e-05 -0.0238171 -1.05979e-05
117 2 1.61225 11.17 25.069 1639.46 1639.45 -62.5456 8.81183e-08 -0.000747027 -5.3839e-06
118 2 2.41837 12.5662 20.511 -2804.07 -2804.22 -877.709 -1.94342e-05 -0.0353973 1.66726e-05
119 2 0.806124 12.5662 22.79 -1940.76 -1940.9 5336.46 3.56135e-05 -0.0237512 -8.46326e-06
120 2 4.03062 12.5662 25.069 1639.46 1639.45 -62.5456 -5.16605e-05 -0.00073877 5.81724e-06
121 2 0 13.9625 0 2596.05 2596.03 -99.0249 -1.59267e-06 -0.00342681 2.67882e-06
122 2 3.2245 13.9625 2.279 -1940.76 -1940.9 5336.46 -1.15205e-06 -0.0237827 4.62333e-06
123 2 1.61225 13.9625 4.55799 -2804.09 -2804.23 -877.783 -2.20807e-07 -0.0237753 4.90085e-06
124 2 2.41837 15.3587 0 2596.05 2596.03 -99.0249 4.68159e-07 -0.00342931 3.16492e-06
125 2 0.806124 15.3587 2.279 -1940.76 -1940.9 5336.46 7.50015e-07 -0.0237733 3.4417e-06
126 2 4.03062 15.3587 4.55799 -2804.09 -2804.23 -877.783 3.17878e-06 -0.0237502 8.92338e-06
127 2 0 13.9625 6.83699 -2812.33 -2812.48 -1020.96 -3.99733e-06 -0.0353581 7.45614e-06
128 2 3.2245 13.9625 9.11598 -2812.36 -2812.5 -1021.14 -1.90767e-05 -0.0238296 -1.32672e-05
129 2 1.61225 13.9625 11.395 -2812.36 -2812.5 -1021.14 -2.79445e-07 -0.0237735 -3.77799e-05
130 2 2.41837 15.3587 6.83699 -2812.33 -2812.48 -1020.96 1.68935e-06 -0.0353425 8.18779e-06
131 2 0.806124 15.3587 9.11598 -2812.36 -2812.5 -1021.14 1.10367e-05 -0.0237363 -1.08433e-05
132 2 4.03062 15.3587 11.395 -2812.36 -2812.5 -1021.13 5.07218e-06 -0.0237359 6.55144e-06
133 2 0 13.9625 13.674 -2812.34 -2812.49 -1021.06 -7.33085e-05 -0.0355152 2.4099e-05
134 2 3.2245 13.9625 15.953 -2812.36 -2812.5 -1021.13 0.000109805 -0.0236115 5.03953e-05
135 2 1.61225 13.9625 18.232 -2812.36 -2812.49 -1021.04 2.89838e-06 -0.0237773 7.7735e-05
136 2 2.41837 15.3587 13.674 -2812.34 -2812.49 -1021.06 4.41303e-05 -0.0352231 9.18163e-06
137 2 0.806124 15.3587 15.953 -2812.36 -2812.5 -1021.13 -6.22953e-05 -0.0238935 6.12308e-05
138 2 4.03062 15.3587 18.232 -2812.36 -2812.5 -1021.04 -0.000136544 -0.024049 -8.20839e-05
139 2 0 13.9625 20.511 -2804.07 -2804.22 -877.709 0.000143985 -0.0351657 -3.99388e-05
140 2 3.2245 13.9625 22.79 -1940.76 -1940.9 5336.46 -0.00011506 -0.0238379 -1.76051e-05
141 2 1.61225 13.9625 25.069 1639.46 1639.45 -62.5457 2.52802e-07 -0.000747267 -6.4026e-06
142 2 2.41837 15.3587 20.511 -2804.07 -2804.22 -877.71 -7.33433e-05 -0.0354529 -1.84021e-05
143 2 0.806124 15.3587 22.79 -1940.76 -1940.9 5336.46 4.13409e-05 -0.0237545 -1.09039e-05
144 2 4.03062 15.3587 25.069 1639.46 1639.45 -62.5456 -2.07689e-05 -0.000697998 1.40645e-05
145 2 0 16.755 0 2596.05 2596.03 -99.0249 -3.44425e-07 -0.00342411 2.20032e-06
146 2 3.2245 16.755 2.279 -1940.76 -1940.9 5336.46 -1.18901e-06 -0.0237833 2.3816e-06
147 2 1.61225 16.755 4.55799 -2804.09 -2804.23 -877.783 -1.46635e-07 -0.0237757 2.42411e-06
148 2 2.41837 18.1512 0 2596.05 2596.03 -99.0249 5.89639e-08 -0.00343042 2.0644e-06
149 2 0.806124 18.1512 2.279 -1940.76 -1940.9 5336.46 5.23976e-07 -0.0237733 1.47703e-06
150 2 4.03062 18.1512 4.55799 -2804.09 -2804.23 -877.783 1.39402e-06 -0.0237448 3.39733e-06
151 2 0 16.755 6.83699 -2812.33 -2812.48 -1020.96 1.85233e-06 -0.0353376 -1.35294e-06
152 2 3.2245 16.755 9.11598 -2812.36 -2812.5 -1021.14 -1.64093e-05 -0.0238495 -1.66148e-05
153 2 1.61225 16.755 11.395 -2812.36 -2812.5 -1021.13 -1.42693e-06 -0.0237758 -3.06939e-05
154 2 2.41837 18.1512 6.83699 -2812.33 -2812.48 -1020.96 -5.8038e-07 -0.0353521 8.60479e-07
155 2 0.806124 18.1512 9.11598 -2812.36 -2812.5 -1021.14 6.72739e-06 -0.0237288 -1.12934e-05
156 2 4.03062 18.1512 11.395 -2812.36 -2812.5 -1021.13 2.11424e-05 -0.0236307 1.52762e-05
157 2 0 16.755 13.674 -2812.34 -2812.49 -1021.06 -8.06782e-05 -0.0356227 3.70214e-05
158 2 3.2245 16.755 15.953 -2812.36 -2812.5 -1021.14 4.16977e-05 -0.0237073 2.39783e-05
159 2 1.61225 16.755 18.232 -2812.36 -2812.5 -1021.04 4.88272e-06 -0.0237695 2.86433e-05
160 2 2.41837 18.1512 13.674 -2812.34 -2812.49 -1021.06 3.62612e-05 -0.0351677 2.27013e-05
161 2 0.806124 18.1512 15.953 -2812.36 -2812.5 -1021.13 -1.82515e-05 -0.0238276 3.39988e-05
162 2 4.03062 18.1512 18.232 -2812.36 -2812.49 -1021.04 -0.000150074 -0.0242996 -7.40455e-05
163 2 0 16.755 20.511 -2804.07 -2804.22 -877.709 0.000180608 -0.0350464 -4.25654e-05
164 2 3.2245 16.755 22.79 -1940.76 -1940.9 5336.46 -0.000119714 -0.0238125 -9.82529e-06
165 2 1.61225 16.755 25.069 1639.46 1639.45 -62.5457 7.28752e-08 -0.000746876 -2.48423e-06
166 2 2.41837 18.1512 20.511 -2804.07 -2804.22 -877.71 -5.23841e-05 -0.0354687 -1.88746e-05
167 2 0.806124 18.1512 22.79 -1940.76 -1940.9 5336.46 2.79102e-05 -0.023763 -7.55221e-06
168 2 4.03062 18.1512 25.069 1639.47 1639.45 -62.5456 1.515e-05 -0.000674477 9.26753e-06
169 2 0 19.5475 0 2596.05 2596.03 -99.0249 1.78652e-08 -0.0034226 9.30641e-07
170 2 3.2245 19.5475 2.279 -1940.76 -1940.9 5336.46 -5.00099e-07 -0.0237829 8.06331e-07
171 2 1.61225 19.5475 4.55799 -2804.09 -2804.23 -877.783 -4.06175e-08 -0.0237759 6.54006e-07
172 2 2.41837 20.9437 0 2596.05 2596.03 -99.0249 1.47364e-10 -0.00343082 3.0106e-10
173 2 0.806124 20.9437 2.279 -1940.76 -1940.9 5336.46 6.10366e-10 -0.0237735 9.00216e-11
174 2 4.03062 20.9437 4.55799 -2804.09 -2804.23 -877.783 -6.72689e-11 -0.0237438 -1.74108e-10
175 2 0 19.5475 6.83699 -2812.33 -2812.48 -1020.96 1.89013e-06 -0.0353228 -2.29364e-06
176 2 3.2245 19.5475 9.11598 -2812.36 -2812.5 -1021.14 -6.14359e-06 -0.0238539 -7.53457e-06
177 2 1.61225 19.5475 11.395 -2812.36 -2812.5 -1021.13 -8.21087e-07 -0.0237785 -1.12214e-05
178 2 2.41837 20.9437 6.83699 -2812.33 -2812.48 -1020.96 -1.5828e-11 -0.0353562 -1.62237e-10
179 2 0.806124 20.9437 9.11598 -2812.36 -2812.5 -1021.14 5.34194e-10 -0.0237275 -1.9785e-12
180 2 4.03062 20.9437 11.395 -2812.36 -2812.5 -1021.13 -1.5828e-11 -0.0235893 -1.5828e-11
181 2 0 19.5475 13.674 -2812.34 -2812.49 -1021.06 -3.08777e-05 -0.0356482 1.50551e-05
182 2 3.2245 19.5475 15.953 -2812.36 -2812.5 -1021.14 5.46341e-06 -0.0237891 4.43779e-06
183 2 1.61225 19.5475 18.232 -2812.36 -2812.5 -1021.04 1.93824e-06 -0.0237642 3.90915e-06
184 2 2.41837 20.9437 13.674 -2812.33 -2812.49 -1021.06 0 -0.035154 -1.90925e-10
185 2 0.806124 20.9437 15.953 -2812.36 -2812.5 -1021.13 6.76646e-10 -0.023794 2.65119e-10
186 2 4.03062 20.9437 18.232 -2812.36 -2812.49 -1021.04 -3.16559e-11 -0.0244062 -1.5828e-10
187 2 0 19.5475 20.511 -2804.07 -2804.22 -877.708 7.58687e-05 -0.0350043 -1.53949e-05
188 2 3.2245 19.5475 22.79 -1940.76 -1940.89 5336.46 -3.9349e-05 -0.023745 1.19368e-07
189 2 1.61225 19.5475 25.069 1639.46 1639.45 -62.5456 -1.65109e-08 -0.000746122 -1.03284e-07
190 2 2.41837 20.9437 20.511 -2804.07 -2804.22 -877.71 8.60646e-11 -0.035472 3.44258e-10
191 2 0.806124 20.9437 22.79 -1940.76 -1940.9 5336.46 5.81678e-10 -0.0237715 1.40473e-10
192 2 4.03062 20.9437 25.069 1639.47 1639.45 -62.5456 -7.02824e-11 -0.000672007 -1.36081e-10
193 2 0 22.34 0 2596.05 2596.03 -99.0249 -1.7968e-08 -0.0034226 -9.31041e-07
194 2 3.2245 22.34 2.279 -1940.76 -1940.9 5336.46 5.00196e-07 -0.0237829 -8.06026e-07
195 2 1.61225 22.34 4.55799 -2804.09 -2804.23 -877.783 4.04039e-08 -0.0237759 -6.54085e-07
196 2 2.41837 23.7362 0 2596.05 2596.03 -99.0249 -5.88718e-08 -0.00343042 -2.06413e-06
197 2 0.806124 23.7362 2.279 -1940.76 -1940.9 5336.46 -5.24468e-07 -0.0237733 -1.47785e-06
198 2 4.03062 23.7362 4.55799 -2804.09 -2804.23 -877.783 -1.39383e-06 -0.0237448 -3.39702e-06
199 2 0 22.34 6.83699 -2812.33 -2812.48 -1020.96 -1.88991e-06 -0.0353228 2.29339e-06
200 2 3.2245 22.34 9.11598 -2812.36 -2812.5 -1021.14 6.14371e-06 -0.0238539 7.53507e-06
201 2 1.61225 22.34 11.395 -2812.36 -2812.5 -1021.13 8.2094e-07 -0.0237785 1.12212e-05
202 2 2.41837 23.7362 6.83699 -2812.33 -2812.48 -1020.96 5.80538e-07 -0.0353521 -8.60003e-07
203 2 0.806124 23.7362 9.11598 -2812.36 -2812.5 -1021.14 -6.72771e-06 -0.0237288 1.12928e-05
204 2 4.03062 23.7362 11.395 -2812.36 -2812.5 -1021.13 -2.11419e-05 -0.0236307 -1.52753e-05
205 2 0 22.34 13.674 -2812.34 -2812.49 -1021.06 3.08779e-05 -0.0356482 -1.50553e-05
206 2 3.2245 22.34 15.953 -2812.36 -2812.5 -1021.14 -5.46341e-06 -0.0237891 -4.43796e-06
207 2 1.61225 22.34 18.232 -2812.36 -2812.5 -1021.04 -1.93809e-06 -0.0237642 -3.90831e-06
208 2 2.41837 23.7362 13.674 -2812.34 -2812.49 -1021.06 -3.6261e-05 -0.0351677 -2.27009e-05
209 2 0.806124 23.7362 15.953 -2812.36 -2812.5 -1021.13 1.82511e-05 -0.0238276 -3.39993e-05
210 2 4.03062 23.7362 18.232 -2812.36 -2812.49 -1021.04 0.000150074 -0.0242996 7.40446e-05
211 2 0 22.34 20.511 -2804.07 -2804.22 -877.708 -7.58685e-05 -0.0350043 1.53946e-05
212 2 3.2245 22.34 22.79 -1940.76 -1940.89 5336.46 3.9349e-05 -0.023745 -1.19241e-07
213 2 1.61225 22.34 25.069 1639.46 1639.45 -62.5456 1.65834e-08 -0.000746122 1.03562e-07
214 2 2.41837 23.7362 20.511 -2804.07 -2804.22 -877.71 5.23844e-05 -0.0354687 1.88753e-05
215 2 0.806124 23.7362 22.79 -1940.76 -1940.9 5336.46 -2.79103e-05 -0.023763 7.55213e-06
216 2 4.03062 23.7362 25.069 1639.47 1639.45 -62.5456 -1.51501e-05 -0.000674477 -9.26769e-06
217 2 0 25.1325 0 2596.05 2596.03 -99.0249 3.44557e-07 -0.00342411 -2.20039e-06
218 2 3.2245 25.1325 2.279 -1940.76 -1940.9 5336.46 1.18909e-06 -0.0237833 -2.38138e-06
219 2 1.61225 25.1325 4.55799 -2804.09 -2804.23 -877.783 1.46445e-07 -0.0237757 -2.42461e-06
220 2 2.41837 26.5287 0 2596.05 2596.03 -99.0249 -4.68199e-07 -0.00342931 -3.16496e-06
221 2 0.806124 26.5287 2.279 -1940.76 -1940.9 5336.46 -7.49941e-07 -0.0237733 -3.44175e-06
222 2 4.03062 26.5287 4.55799 -2804.09 -2804.23 -877.783 -3.17878e-06 -0.0237502 -8.92299e-06
223 2 0 25.1325 6.83699 -2812.33 -2812.48 -1020.96 -1.85165e-06 -0.0353376 1.3528e-06
224 2 3.2245 25.1325 9.11598 -2812.36 -2812.5 -1021.14 1.64094e-05 -0.0238495 1.66156e-05
225 2 1.61225 25.1325 11.395 -2812.36 -2812.5 -1021.13 1.42688e-06 -0.0237758 3.06939e-05
226 2 2.41837 26.5287 6.83699 -2812.33 -2812.48 -1020.96 -1.6893e-06 -0.0353425 -8.18776e-06
227 2 0.806124 26.5287 9.11598 -2812.36 -2812.5 -1021.14 -1.10366e-05 -0.0237363 1.08433e-05
228 2 4.03062 26.5287 11.395 -2812.36 -2812.5 -1021.13 -5.07217e-06 -0.0237359 -6.55123e-06
229 2 0 25.1325 13.674 -2812.34 -2812.49 -1021.06 8.06788e-05 -0.0356227 -3.70214e-05
230 2 3.2245 25.1325 15.953 -2812.36 -2812.5 -1021.14 -4.16979e-05 -0.0237073 -2.39782e-05
231 2 1.61225 25.1325 18.232 -2812.36 -2812.5 -1021.04 -4.88266e-06 -0.0237695 -2.86431e-05
232 2 2.41837 26.5287 13.674 -2812.34 -2812.49 -1021.06 -4.41303e-05 -0.0352231 -9.18157e-06
233 2 0.806124 26.5287 15.953 -2812.36 -2812.5 -1021.13 6.22954e-05 -0.0238935 -6.12309e-05
234 2 4.03062 26.5287 18.232 -2812.36 -2812.5 -1021.04 0.000136544 -0.024049 8.20838e-05
235 2 0 25.1325 20.511 -2804.07 -2804.22 -877.709 -0.000180608 -0.0350464 4.2565e-05
236 2 3.2245 25.1325 22.79 -1940.76 -1940.9 5336.46 0.000119714 -0.0238125 9.82549e-06
237 2 1.61225 25.1325 25.069 1639.46 1639.45 -62.5457 -7.28721e-08 -0.000746876 2.48428e-06
238 2 2.41837 26.5287 20.511 -2804.07 -2804.22 -877.71 7.33434e-05 -0.0354529 1.84025e-05
239 2 0.806124 26.5287 22.79 -1940.76 -1940.9 5336.46 -4.13409e-05 -0.0237545 1.09037e-05
240 2 4.03062 26.5287 25.069 1639.46 1639.45 -62.5456 2.0769e-05 -0.000697998 -1.40645e-05
241 2 0 27.925 0 2596.05 2596.03 -99.0249 1.59267e-06 -0.00342681 -2.67885e-06
242 2 3.2245 27.925 2.279 -1940.76 -1940.9 5336.46 1.15226e-06 -0.0237827 -4.62335e-06
243 2 1.61225 27.925 4.55799 -2804.09 -2804.23 -877.783 2.21045e-07 -0.0237753 -4.9006e-06
244 2 2.41837 29.3212 0 2596.05 2596.03 -99.0249 -1.22914e-06 -0.00342778 -3.62076e-06
245 2 0.806124 29.3212 2.279 -1940.76 -1940.9 5336.46 -5.64959e-07 -0.0237745 -6.75437e-06
246 2 4.03062 29.3212 4.55799 -2804.09 -2804.23 -877.783 -1.37771e-06 -0.0237616 -1.25524e-05
247 2 0 27.925 6.83699 -2812.33 -2812.48 -1020.96 3.99768e-06 -0.0353581 -7.45588e-06
248 2 3.2245 27.925 9.11598 -2812.36 -2812.5 -1021.14 1.90767e-05 -0.0238296 1.32671e-05
249 2 1.61225 27.925 11.395 -2812.36 -2812.5 -1021.14 2.7964e-07 -0.0237735 3.778e-05
250 2 2.41837 29.3212 6.83699 -2812.33 -2812.48 -1020.96 -4.57329e-06 -0.0353349 -1.34043e-05
251 2 0.806124 29.3212 9.11598 -2812.36 -2812.5 -1021.14 -8.93308e-06 -0.0237545 -4.00796e-07
252 2 4.03062 29.3212 11.395 -2812.36 -2812.5 -1021.13 3.70898e-05 -0.0238283 2.36265e-05
253 2 0 27.925 13.674 -2812.34 -2812.49 -1021.06 7.33087e-05 -0.0355152 -2.40987e-05
254 2 3.2245 27.925 15.953 -2812.36 -2812.5 -1021.13 -0.000109805 -0.0236115 -5.03955e-05
255 2 1.61225 27.925 18.232 -2812.36 -2812.49 -1021.04 -2.89806e-06 -0.0237773 -7.77348e-05
256 2 2.41837 29.3212 13.674 -2812.34 -2812.49 -1021.06 -1.23949e-05 -0.0353097 3.21589e-05
257 2 0.806124 29.3212 15.953 -2812.36 -2812.5 -1021.13 8.19139e-05 -0.0238914 -3.67344e-05
258 2 4.03062 29.3212 18.232 -2812.36 -2812.5 -1021.04 -1.04043e-05 -0.0238116 2.63493e-05
259 2 0 27.925 20.511 -2804.07 -2804.22 -877.709 -0.000143985 -0.0351657 3.99389e-05
260 2 3.2245 27.925 22.79 -1940.76 -1940.9 5336.46 0.00011506 -0.0238379 1.76049e-05
261 2 1.61225 27.925 25.069 1639.46 1639.45 -62.5457 -2.52768e-07 -0.000747267 6.40263e-06
262 2 2.41837 29.3212 20.511 -2804.07 -2804.22 -877.709 1.94342e-05 -0.0353973 -1.66723e-05
263 2 0.806124 29.3212 22.79 -1940.76 -1940.9 5336.46 -3.56136e-05 -0.0237512 8.46339e-06
264 2 4.03062 29.3212 25.069 1639.46 1639.45 -62.5456 5.16605e-05 -0.00073877 -5.81732e-06
265 2 0 30.7174 0 2596.05 2596.03 -99.0249 3.02432e-06 -0.00342978 -3.03739e-06
266 2 3.2245 30.7174 2.279 -1940.76 -1940.9 5336.46 5.26788e-07 -0.0237791 -7.30983e-06
267 2 1.61225 30.7174 4.55799 -2804.09 -2804.23 -877.783 1.26538e-07 -0.023775 -5.58508e-06
268 2 2.41837 32.1137 0 2596.05 2596.03 -99.0249 -1.60495e-06 -0.00342648 -3.44161e-06
269 2 0.806124 32.1137 2.279 -1940.76 -1940.9 5336.46 -1.31342e-07 -0.0237775 -8.9191e-06
270 2 4.03062 32.1137 4.55799 -2804.09 -2804.23 -877.783 4.91018e-06 -0.0237721 -7.23535e-06
271 2 0 30.7174 6.83699 -2812.33 -2812.48 -1020.96 7.4363e-06 -0.035367 -1.05371e-05
272 2 3.2245 30.7174 9.11598 -2812.36 -2812.5 -1021.14 8.91052e-06 -0.0237942 2.02824e-06
273 2 1.61225 30.7174 11.395 -2812.36 -2812.5 -1021.14 -9.69555e-07 -0.0237735 2.4032e-05
274 2 2.41837 32.1137 6.83699 -2812.33 -2812.48 -1020.96 -3.18994e-06 -0.0353376 -3.50497e-06
275 2 0.806124 32.1137 9.11598 -2812.36 -2812.5 -1021.14 3.36412e-07 -0.0237753 -8.72504e-06
276 2 4.03062 32.1137 11.395 -2812.36 -2812.5 -1021.13 4.34756e-05 -0.0238366 3.22931e-05
277 2 0 30.7174 13.674 -2812.34 -2812.49 -1021.06 2.91251e-06 -0.0353675 1.7494e-05
278 2 3.2245 30.7174 15.953 -2812.36 -2812.5 -1021.13 -0.000103512 -0.0236444 -3.3649e-05
279 2 1.61225 30.7174 18.232 -2812.36 -2812.49 -1021.04 3.00259e-06 -0.0237796 -6.97367e-05
280 2 2.41837 32.1137 13.674 -2812.34 -2812.49 -1021.06 1.83582e-05 -0.0353639 4.12168e-05
281 2 0.806124 32.1137 15.953 -2812.36 -2812.5 -1021.13 2.80354e-05 -0.0238099 1.82417e-05
282 2 4.03062 32.1137 18.232 -2812.36 -2812.49 -1021.04 -0.000153859 -0.0236684 -4.76887e-05
283 2 0 30.7174 20.511 -2804.07 -2804.22 -877.709 1.56255e-05 -0.0353106 5.1024e-07
284 2 3.2245 30.7174 22.79 -1940.76 -1940.9 5336.46 3.79848e-05 -0.0238171 1.05979e-05
285 2 1.61225 30.7174 25.069 1639.46 1639.45 -62.5456 -8.81013e-08 -0.000747027 5.38397e-06
286 2 2.41837 32.1137 20.511 -2804.07 -2804.22 -877.708 -7.30908e-05 -0.0353218 -4.65977e-05
287 2 0.806124 32.1137 22.79 -1940.76 -1940.9 5336.46 1.63847e-05 -0.0237677 -7.92541e-06
288 2 4.03062 32.1137 25.069 1639.46 1639.45 -62.5456 1.87724e-05 -0.000757481 3.77327e-06
289 2 0 33.5099 0 2596.05 2596.03 -99.0249 2.59232e-06 -0.00343155 -2.43991e-06
290 2 3.2245 33.5099 2.279 -1940.76 -1940.9 5336.46 -2.25216e-07 -0.0237729 -6.36993e-06
291 2 1.61225 33.5099 4.55799 -2804.09 -2804.23 -877.784 -4.09381e-08 -0.0237749 -1.79071e-06
292 2 2.41837 34.9062 0 2596.05 2596.03 -99.0249 -6.55327e-07 -0.00342618 -1.05947e-06
293 2 0.806124 34.9062 2.279 -1940.76 -1940.9 5336.46 3.12492e-07 -0.0237809 -3.95713e-06
294 2 4.03062 34.9062 4.55799 -2804.09 -2804.23 -877.784 5.23847e-06 -0.0237736 2.92735e-06
295 2 0 33.5099 6.83699 -2812.33 -2812.48 -1020.96 2.95607e-06 -0.0353551 -9.22086e-07
296 2 3.2245 33.5099 9.11598 -2812.36 -2812.5 -1021.14 -7.16988e-06 -0.0237685 -6.86793e-06
297 2 1.61225 33.5099 11.395 -2812.36 -2812.5 -1021.13 -7.83757e-07 -0.0237747 -4.80979e-06
298 2 2.41837 34.9062 6.83699 -2812.33 -2812.48 -1020.96 1.60876e-07 -0.035347 6.56746e-06
299 2 0.806124 34.9062 9.11598 -2812.36 -2812.5 -1021.13 6.59157e-06 -0.0237804 -7.87645e-06
300 2 4.03062 34.9062 11.395 -2812.36 -2812.5 -1021.13 7.4768e-06 -0.0237937 5.8951e-06
301 2 0 33.5099 13.674 -2812.34 -2812.49 -1021.06 -3.81161e-05 -0.0353047 2.76242e-05
302 2 3.2245 33.5099 15.953 -2812.36 -2812.5 -1021.13 -5.26116e-06 -0.0237605 1.17898e-05
303 2 1.61225 33.5099 18.232 -2812.36 -2812.49 -1021.04 2.31662e-06 -0.0237762 5.80696e-06
304 2 2.41837 34.9062 13.674 -2812.34 -2812.49 -1021.06 1.709e-05 -0.0353654 9.82055e-06
305 2 0.806124 34.9062 15.953 -2812.36 -2812.5 -1021.14 -1.82849e-05 -0.0237623 2.63392e-05
306 2 4.03062 34.9062 18.232 -2812.36 -2812.49 -1021.04 -5.95472e-05 -0.0237231 -3.00286e-05
307 2 0 33.5099 20.511 -2804.07 -2804.22 -877.708 0.000117067 -0.0353983 -2.90653e-05
308 2 3.2245 33.5099 22.79 -1940.76 -1940.9 5336.46 -4.57827e-05 -0.0237805 -5.39337e-06
309 2 1.61225 33.5099 25.069 1639.46 1639.45 -62.5456 3.38596e-07 -0.00074701 -1.33115e-06
310 2 2.41837 34.9062 20.511 -2804.07 -2804.22 -877.708 -3.93947e-05 -0.0353228 -9.06271e-06
311 2 0.806124 34.9062 22.79 -1940.76 -1940.9 5336.46 3.08651e-05 -0.0237866 -1.1072e-05
312 2 4.03062 34.9062 25.069 1639.46 1639.45 -62.5456 -1.34199e-05 -0.00075159 2.59251e-06
313 2 0 36.3024 0 2596.05 2596.03 -99.0249 -5.14112e-07 -0.00343095 5.79392e-07
314 2 3.2245 36.3024 2.279 -1940.76 -1940.9 5336.46 -8.30453e-07 -0.0237693 1.42674e-06
315 2 1.61225 36.3024 4.55799 -2804.09 -2804.23 -877.784 -1.68873e-08 -0.023775 3.49532e-06
316 2 2.41837 37.6987 0 2596.05 2596.03 -99.0249 1.06539e-06 -0.0034271 3.02524e-06
317 2 0.806124 37.6987 2.279 -1940.76 -1940.9 5336.46 5.79445e-07 -0.0237808 7.06148e-06
318 2 4.03062 37.6987 4.55799 -2804.09 -2804.23 -877.784 -6.00154e-06 -0.0237712 5.83203e-06
319 2 0 36.3024 6.83699 -2812.33 -2812.48 -1020.96 4.15983e-07 -0.0353397 1.64828e-06
320 2 3.2245 36.3024 9.11598 -2812.36 -2812.5 -1021.14 -9.42947e-06 -0.0237709 -1.0527e-05
321 2 1.61225 36.3024 11.395 -2812.36 -2812.5 -1021.13 6.90781e-08 -0.0237755 -2.08456e-05
322 2 2.41837 37.6987 6.83699 -2812.33 -2812.48 -1020.96 -7.09433e-07 -0.0353509 -4.08644e-06
323 2 0.806124 37.6987 9.11598 -2812.36 -2812.5 -1021.14 2.16377e-06 -0.0237742 -1.00624e-05
324 2 4.03062 37.6987 11.395 -2812.36 -2812.5 -1021.13 -9.23395e-06 -0.0237662 -1.4571e-05
325 2 0 36.3024 13.674 -2812.34 -2812.49 -1021.06 -1.83664e-05 -0.0353284 3.93509e-06
326 2 3.2245 36.3024 15.953 -2812.36 -2812.5 -1021.14 3.56499e-05 -0.0237975 1.91205e-05
327 2 1.61225 36.3024 18.232 -2812.36 -2812.49 -1021.04 -6.55366e-07 -0.0237743 2.90259e-05
328 2 2.41837 37.6987 13.674 -2812.34 -2812.49 -1021.06 8.32765e-07 -0.0353467 -1.07318e-05
329 2 0.806124 37.6987 15.953 -2812.36 -2812.5 -1021.14 -1.33587e-05 -0.0237668 6.12088e-06
330 2 4.03062 37.6987 18.232 -2812.36 -2812.49 -1021.04 4.35487e-05 -0.0237916 1.65271e-05
331 2 0 36.3024 20.511 -2804.07 -2804.22 -877.708 1.64849e-05 -0.0353657 -2.8226e-06
332 2 3.2245 36.3024 22.79 -1940.76 -1940.9 5336.46 -2.47294e-05 -0.0237684 -6.32498e-06
333 2 1.61225 36.3024 25.069 1639.46 1639.45 -62.5456 7.32604e-08 -0.00074728 -3.01543e-06
334 2 2.41837 37.6987 20.511 -2804.07 -2804.22 -877.708 1.31145e-05 -0.0353483 1.40465e-05