ITEM: TIMESTEP
0
ITEM: NUMBER OF ATOMS
3074
ITEM: BOX BOUNDS pp pp pp
0.0000000000000000e+00 3.8693948398131120e+01
0.0000000000000000e+00 4.4679925159782847e+01
0.0000000000000000e+00 6.0000000000000000e+01
ITEM: ATOMS id type x y z c_peratom[1] c_peratom[2] c_peratom[3] c_peratom[4] c_peratom[5] c_peratom[6]
1 2 0 0 0 -205991 -205989 7857.41 3.69145e-06 0.272006 0.000132114
2 2 3.2245 0 2.279 29869.7 29871.8 -82132 -4.0528e-05 0.365803 -4.32274e-05
3 2 1.61225 0 4.55799 43157 43159.1 13509.7 -1.19817e-05 0.365777 -0.00011309
4 2 2.41837 1.39625 0 -205991 -205989 7857.41 -0.000172206 0.271881 0.000157694
5 2 0.806124 1.39625 2.279 29869.7 29871.8 -82132 -2.10522e-05 0.365905 -8.73976e-05
6 2 4.03062 1.39625 4.55799 43157 43159.1 13509.7 -1.9196e-07 0.365772 -4.63607e-05
7 2 0 0 6.83699 43283.9 43286.2 15713.4 -1.09061e-06 0.544012 -2.13279e-05
8 2 3.2245 0 9.11598 43284.2 43286.4 15716 4.09514e-05 0.366078 1.52276e-05
9 2 1.61225 0 11.395 43284.2 43286.4 15716 -4.641e-05 0.365952 -3.15989e-05
10 2 2.41837 1.39625 6.83699 43283.9 43286.2 15713.4 0.000109256 0.544084 4.4322e-05
11 2 0.806124 1.39625 9.11598 43284.2 43286.4 15716 2.96521e-05 0.365948 0.000120443
12 2 4.03062 1.39625 11.395 43284.2 43286.4 15716 -0.000212679 0.365827 -0.000280943
13 2 0 0 13.674 43283.9 43286.2 15714.9 2.58488e-06 0.544012 -0.000152137
14 2 3.2245 0 15.953 43284.2 43286.4 15716 -2.10927e-05 0.36581 -2.68954e-05
15 2 1.61225 0 18.232 43284.2 43286.3 15714.5 6.06961e-05 0.365934 -5.60894e-06
16 2 2.41837 1.39625 13.674 43283.9 43286.2 15714.9 -0.000224209 0.543879 -0.000300457
17 2 0.806124 1.39625 15.953 43284.2 43286.4 15716 -3.15924e-05 0.365916 -0.000271658
18 2 4.03062 1.39625 18.232 43284.2 43286.3 15714.5 0.000545415 0.366166 0.000324244
19 2 0 0 20.511 43156.6 43158.9 13508.6 -2.88378e-06 0.544003 7.43029e-05
20 2 3.2245 0 22.79 29869.7 29871.8 -82132 0.000175573 0.366061 4.20283e-05
21 2 1.61225 0 25.069 -205991 -205989 7858.56 0.000368413 0.0939276 8.31669e-05
22 2 2.41837 1.39625 20.511 43156.6 43158.9 13508.6 0.000506453 0.544229 0.000262105
23 2 0.806124 1.39625 22.79 29869.7 29871.8 -82132 0.00012136 0.365995 0.000124186
24 2 4.03062 1.39625 25.069 -205991 -205989 7858.56 -5.52222e-05 0.0937247 -0.000223178
25 2 0 2.7925 0 -205991 -205989 7857.41 7.29247e-06 0.27201 0.000192138
26 2 3.2245 2.7925 2.279 29869.7 29871.8 -82132 -5.16788e-05 0.365839 -7.37485e-05
27 2 1.61225 2.7925 4.55799 43157 43159.1 13509.7 1.90499e-05 0.365885 -0.000160502
28 2 2.41837 4.18874 0 -205991 -205989 7857.41 -0.000173266 0.271805 7.08078e-05
29 2 0.806124 4.18874 2.279 29869.7 29871.8 -82132 -9.36041e-06 0.365924 -0.000110228
30 2 4.03062 4.18874 4.55799 43157 43159.1 13509.7 8.39476e-05 0.365874 -2.24644e-05
31 2 0 2.7925 6.83699 43283.9 43286.2 15713.4 -2.05918e-06 0.544005 8.06909e-05
32 2 3.2245 2.7925 9.11598 43284.2 43286.4 15716 -0.000102837 0.365873 -8.00534e-05
33 2 1.61225 2.7925 11.395 43284.2 43286.4 15716 -0.000191207 0.365772 -0.00025307
34 2 2.41837 4.18874 6.83699 43283.9 43286.2 15713.4 3.69418e-05 0.544024 8.18981e-05
35 2 0.806124 4.18874 9.11598 43284.2 43286.4 15716 -7.26484e-05 0.365843 4.16858e-05
36 2 4.03062 4.18874 11.395 43284.2 43286.4 15716 -1.33368e-05 0.366073 2.97708e-06
37 2 0 2.7925 13.674 43283.9 43286.2 15714.9 1.4752e-06 0.544018 -0.000505318
38 2 3.2245 2.7925 15.953 43284.2 43286.4 15716 0.000459217 0.366201 0.00011665
39 2 1.61225 2.7925 18.232 43284.2 43286.3 15714.5 0.000538903 0.366213 0.000225912
40 2 2.41837 4.18874 13.674 43283.9 43286.2 15714.9 0.000305479 0.544317 -0.000160257
41 2 0.806124 4.18874 15.953 43284.2 43286.4 15716 0.000293859 0.366114 -5.84627e-05
42 2 4.03062 4.18874 18.232 43284.2 43286.3 15714.5 -0.00028732 0.365593 -0.000392344
43 2 0 2.7925 20.511 43156.6 43158.9 13508.6 -1.00062e-05 0.544004 0.000378524
44 2 3.2245 2.7925 22.79 29869.7 29871.8 -82132 -6.27029e-05 0.36591 -4.8977e-06
45 2 1.61225 2.7925 25.069 -205991 -205989 7858.56 0.000170726 0.0936208 -3.06083e-05
46 2 2.41837 4.18874 20.511 43156.6 43158.9 13508.6 -5.71273e-05 0.54384 0.000123337
47 2 0.806124 4.18874 22.79 29869.7 29871.8 -82132 -5.16937e-05 0.365911 0.000118791
48 2 4.03062 4.18874 25.069 -205991 -205989 7858.56 -0.00122126 0.0940845 0.000345611
49 2 0 5.58499 0 -205991 -205989 7857.41 3.87388e-06 0.272012 -8.51174e-05
50 2 3.2245 5.58499 2.279 29869.7 29871.8 -82132 3.57048e-05 0.365924 -3.16264e-05
51 2 1.61225 5.58499 4.55799 43157 43159.1 13509.7 9.84361e-05 0.36596 1.94474e-05
52 2 2.41837 6.98124 0 -205991 -205989 7857.41 -3.69472e-05 0.271901 -0.000174463
53 2 0.806124 6.98124 2.279 29869.7 29871.8 -82132 2.08367e-05 0.36596 -8.30481e-05
54 2 4.03062 6.98124 4.55799 43157 43159.1 13509.7 0.000144566 0.365729 -7.05952e-05
55 2 0 5.58499 6.83699 43283.9 43286.2 15713.4 2.16707e-06 0.544008 0.000261551
56 2 3.2245 5.58499 9.11598 43284.2 43286.4 15716 -0.000286377 0.36572 -0.000127893
57 2 1.61225 5.58499 11.395 43284.2 43286.4 15716 -6.6894e-05 0.365991 -0.000370892
58 2 2.41837 6.98124 6.83699 43283.9 43286.2 15713.4 -0.000147082 0.543628 1.01123e-05
59 2 0.806124 6.98124 9.11598 43284.2 43286.4 15716 -0.000131049 0.365785 -0.000175428
60 2 4.03062 6.98124 11.395 43284.2 43286.4 15716 0.000537253 0.366817 0.000554686
61 2 0 5.58499 13.674 43283.9 43286.2 15714.9 -1.69689e-05 0.543997 -0.000394436
62 2 3.2245 5.58499 15.953 43284.2 43286.4 15716 0.00054943 0.366091 -0.00013181
63 2 1.61225 5.58499 18.232 43284.2 43286.3 15714.5 0.000257782 0.36581 0.000360571
64 2 2.41837 6.98124 13.674 43283.9 43286.2 15714.9 0.000944062 0.544974 0.00016256
65 2 0.806124 6.98124 15.953 43284.2 43286.4 15716 0.000324638 0.366054 0.000430715
66 2 4.03062 6.98124 18.232 43284.2 43286.3 15714.5 -0.00170322 0.364852 -0.000931279
67 2 0 5.58499 20.511 43156.6 43158.9 13508.6 2.24445e-05 0.544032 0.000497098
68 2 3.2245 5.58499 22.79 29869.7 29871.8 -82132 -0.000622632 0.36591 5.77012e-05
69 2 1.61225 5.58499 25.069 -205991 -205989 7858.56 -0.00169169 0.0938693 -0.000168525
70 2 2.41837 6.98124 20.511 43156.6 43158.9 13508.6 -0.00186302 0.543124 -0.000164082
71 2 0.806124 6.98124 22.79 29869.7 29871.8 -82132 -0.000621654 0.365862 -8.68623e-05
72 2 4.03062 6.98124 25.069 -205991 -205989 7858.57 0.00238065 0.0945207 0.000727982
73 2 0 8.37749 0 -205991 -205989 7857.41 -1.9615e-06 0.272007 -0.000395862
74 2 3.2245 8.37749 2.279 29869.7 29871.8 -82132 0.000114323 0.366026 -5.29181e-06
75 2 1.61225 8.37749 4.55799 43157 43159.1 13509.7 0.000108437 0.365862 9.61053e-05
76 2 2.41837 9.77373 0 -205991 -205989 7857.41 5.00577e-05 0.2722 -0.000274551
77 2 0.806124 9.77373 2.279 29869.7 29871.8 -82132 3.50356e-05 0.365997 -6.18628e-05
78 2 4.03062 9.77373 4.55799 43157 43159.1 13509.7 7.9166e-05 0.365406 -0.000261497
79 2 0 8.37749 6.83699 43283.9 43286.2 15713.4 9.32629e-06 0.544028 0.000128202
80 2 3.2245 8.37749 9.11598 43284.3 43286.4 15716 3.20079e-05 0.36608 0.000171638
81 2 1.61225 8.37749 11.395 43284.2 43286.4 15716 0.000462434 0.366709 4.48737e-05
82 2 2.41837 9.77373 6.83699 43283.9 43286.2 15713.4 -0.000173411 0.543312 -0.000166997
83 2 0.806124 9.77373 9.11598 43284.2 43286.4 15716 2.01757e-05 0.365984 -0.000221395
84 2 4.03062 9.77373 11.395 43284.2 43286.4 15716 0.000594026 0.366739 0.000344141
85 2 0 8.37749 13.674 43283.9 43286.2 15714.9 -2.49626e-05 0.543972 0.000370398
86 2 3.2245 8.37749 15.953 43284.2 43286.4 15716 -0.00145324 0.36431 -0.00124407
87 2 1.61225 8.37749 18.232 43284.2 43286.3 15714.5 -0.00209999 0.364105 -0.000311541
88 2 2.41837 9.77373 13.674 43283.9 43286.2 15714.9 0.000218333 0.544018 -9.1946e-05
89 2 0.806124 9.77373 15.953 43284.2 43286.4 15716 -0.000642592 0.364992 0.00037605
90 2 4.03062 9.77373 18.232 43284.2 43286.4 15714.6 0.000577172 0.366892 0.000744119
91 2 0 8.37749 20.511 43156.6 43158.9 13508.6 9.92085e-05 0.544071 -0.00030581
92 2 3.2245 8.37749 22.79 29869.7 29871.8 -82132 0.000344833 0.366281 0.000285804
93 2 1.61225 8.37749 25.069 -205991 -205989 7858.56 -0.00104332 0.0951339 0.000220915
94 2 2.41837 9.77373 20.511 43156.6 43159 13508.6 -0.000523074 0.544367 0.000436164
95 2 0.806124 9.77373 22.79 29869.7 29871.8 -82132 -0.000207583 0.366216 -6.22724e-05
96 2 4.03062 9.77373 25.069 -205991 -205989 7858.56 0.00728487 0.0915676 -0.00152994
97 2 0 11.17 0 -205991 -205989 7857.41 -3.46859e-06 0.271994 -0.000356684
98 2 3.2245 11.17 2.279 29869.7 29871.8 -82132 8.61883e-05 0.366085 -4.54357e-05
99 2 1.61225 11.17 4.55799 43157 43159.1 13509.7 9.41776e-06 0.365613 -0.00014043
100 2 2.41837 12.5662 0 -205991 -205989 7857.41 -8.50421e-06 0.272526 -5.73924e-05
101 2 0.806124 12.5662 2.279 29869.7 29871.8 -82132 1.77638e-05 0.366011 -6.07412e-05
102 2 4.03062 12.5662 4.55799 43157 43159.1 13509.7 -5.26069e-05 0.365275 -0.000427391
103 2 0 11.17 6.83699 43283.9 43286.2 15713.4 7.03522e-06 0.54404 -0.000355767
104 2 3.2245 11.17 9.11598 43284.2 43286.4 15716 0.000602344 0.366883 0.000508124
105 2 1.61225 11.17 11.395 43284.2 43286.4 15716 0.000781583 0.367162 0.000565099
106 2 2.41837 12.5662 6.83699 43283.9 43286.2 15713.4 2.43555e-06 0.543587 -0.000321712
107 2 0.806124 12.5662 9.11598 43284.3 43286.4 15716 0.000204095 0.366343 -7.64122e-05
108 2 4.03062 12.5662 11.395 43284.2 43286.4 15716 -0.00050323 0.364179 -0.00106209
109 2 0 11.17 13.674 43283.9 43286.2 15714.9 2.98222e-05 0.544028 0.00104857
110 2 3.2245 11.17 15.953 43284.3 43286.4 15716 -0.00172777 0.364183 -0.000798916
111 2 1.61225 11.17 18.232 43284.2 43286.3 15714.5 -0.00259193 0.364103 -0.000653647
112 2 2.41837 12.5662 13.674 43283.9 43286.2 15714.8 -0.00163587 0.540786 -0.000877793
113 2 0.806124 12.5662 15.953 43284.2 43286.4 15716 -0.00183257 0.36339 -0.00068783
114 2 4.03062 12.5662 18.232 43284.2 43286.4 15714.6 0.00432863 0.370966 0.00299614
115 2 0 11.17 20.511 43156.6 43158.9 13508.6 8.37803e-06 0.543998 -0.000758784
116 2 3.2245 11.17 22.79 29869.7 29871.8 -82132 0.00308949 0.36689 0.000574184
117 2 1.61225 11.17 25.069 -205991 -205989 7858.57 0.0040883 0.0951175 0.00031718
118 2 2.41837 12.5662 20.511 43156.7 43159 13508.6 0.00280715 0.547008 0.0013067
119 2 0.806124 12.5662 22.79 29869.7 29871.8 -82132 0.000318795 0.366221 8.39924e-05
120 2 4.03062 12.5662 25.069 -205991 -205989 7858.55 -0.0044236 0.0844319 -0.00549925
121 2 0 13.9625 0 -205991 -205989 7857.41 -2.63458e-07 0.271983 3.57408e-05
122 2 3.2245 13.9625 2.279 29869.7 29871.8 -82132 -2.38923e-05 0.366059 -9.63465e-05
123 2 1.61225 13.9625 4.55799 43157 43159.1 13509.7 -0.000112184 0.365401 -0.000469189
124 2 2.41837 15.3587 0 -205991 -205989 7857.41 -0.000103632 0.272683 0.000270946
125 2 0.806124 15.3587 2.279 29869.7 29871.8 -82132 -9.87703e-06 0.365995 -4.68478e-05
126 2 4.03062 15.3587 4.55799 43157 43159.1 13509.7 -0.000138121 0.365478 -0.000416742
127 2 0 13.9625 6.83699 43283.9 43286.2 15713.4 -4.85484e-06 0.544019 -0.000745378
128 2 3.2245 13.9625 9.11598 43284.2 43286.4 15716 0.00086889 0.367584 0.000465877
129 2 1.61225 13.9625 11.395 43284.2 43286.4 15716 0.000519664 0.366577 0.00065036
130 2 2.41837 15.3587 6.83699 43283.9 43286.2 15713.4 0.000143148 0.544335 -0.000365391
131 2 0.806124 15.3587 9.11598 43284.3 43286.4 15716 0.000246119 0.366639 2.80298e-05
132 2 4.03062 15.3587 11.395 43284.2 43286.4 15716 -0.00132326 0.361148 -0.00182228
133 2 0 13.9625 13.674 43283.9 43286.2 15714.8 0.000137253 0.544261 0.000810875
134 2 3.2245 13.9625 15.953 43284.3 43286.4 15716 -9.69044e-05 0.366143 0.000203734
135 2 1.61225 13.9625 18.232 43284.2 43286.3 15714.6 -1.71454e-05 0.367145 8.01666e-05
136 2 2.41837 15.3587 13.674 43283.9 43286.2 15714.9 -0.00207022 0.538679 -0.00100778
137 2 0.806124 15.3587 15.953 43284.2 43286.4 15716 -0.00150819 0.363498 -0.00124469
138 2 4.03062 15.3587 18.232 43284.2 43286.3 15714.5 0.0115 0.380881 0.00685119
139 2 0 13.9625 20.511 43156.7 43159 13508.6 -0.000119429 0.543882 -4.31195e-05
140 2 3.2245 13.9625 22.79 29869.7 29871.8 -82132 0.00476677 0.363542 -0.000992083
141 2 1.61225 13.9625 25.069 -205991 -205989 7858.56 0.00746004 0.0918148 -0.000362385
142 2 2.41837 15.3587 20.511 43156.6 43158.9 13508.6 0.00724457 0.55192 0.00225627
143 2 0.806124 15.3587 22.79 29869.7 29871.8 -82132 -0.000117554 0.365911 -3.47631e-05
144 2 4.03062 15.3587 25.069 -205991 -205989 7858.56 -0.0235558 0.0865951 -0.003932
145 2 0 16.755 0 -205991 -205989 7857.41 2.28832e-06 0.271979 0.000336819
146 2 3.2245 16.755 2.279 29869.7 29871.8 -82132 -8.59274e-05 0.365982 -8.57016e-05
147 2 1.61225 16.755 4.55799 43157 43159.1 13509.7 -0.000144205 0.365351 -0.000509909
148 2 2.41837 18.1512 0 -205991 -205989 7857.41 -9.96974e-05 0.272672 0.000316401
149 2 0.806124 18.1512 2.279 29869.7 29871.8 -82132 -1.6068e-05 0.365969 -1.83783e-05
150 2 4.03062 18.1512 4.55799 43157 43159.1 13509.7 -0.000114469 0.365773 -0.000245472
151 2 0 16.755 6.83699 43283.9 43286.2 15713.4 -1.06224e-05 0.543978 -0.000696336
152 2 3.2245 16.755 9.11598 43284.2 43286.4 15716 0.000598134 0.367601 9.76471e-05
153 2 1.61225 16.755 11.395 43284.2 43286.4 15716 -3.68471e-06 0.364902 0.000281142
154 2 2.41837 18.1512 6.83699 43283.9 43286.2 15713.4 0.000117909 0.545037 -0.000250107
155 2 0.806124 18.1512 9.11598 43284.3 43286.4 15716 0.000152139 0.366788 2.76163e-05
156 2 4.03062 18.1512 11.395 43284.2 43286.4 15716 -0.000888036 0.360288 -0.00111471
157 2 0 16.755 13.674 43283.9 43286.2 15714.8 0.000152838 0.54456 -4.40419e-05
158 2 3.2245 16.755 15.953 43284.3 43286.4 15716 0.000202169 0.366676 0.000225579
159 2 1.61225 16.755 18.232 43284.2 43286.4 15714.6 0.00113925 0.369512 0.000454935
160 2 2.41837 18.1512 13.674 43283.9 43286.2 15714.9 -0.00106326 0.539033 -0.000498185
161 2 0.806124 18.1512 15.953 43284.2 43286.4 15716 -0.000552482 0.364815 -0.000712295
162 2 4.03062 18.1512 18.232 43284.2 43286.3 15714.5 0.00881344 0.379422 0.00456777
163 2 0 16.755 20.511 43156.7 43159 13508.6 -2.23527e-05 0.543972 4.16786e-05
164 2 3.2245 16.755 22.79 29869.6 29871.7 -82132 -0.00432675 0.350846 -0.00394376
165 2 1.61225 16.755 25.069 -205991 -205989 7858.56 0.0051533 0.0859994 -0.000981706
166 2 2.41837 18.1512 20.511 43156.6 43158.9 13508.5 0.00670619 0.554629 0.00161296
167 2 0.806124 18.1512 22.79 29869.7 29871.8 -82132 5.94323e-05 0.366002 1.90575e-05
168 2 4.03062 18.1512 25.069 -205991 -205989 7858.57 -0.015336 0.0969967 -0.00044642
169 2 0 19.5475 0 -205991 -205989 7857.41 1.33516e-06 0.27198 0.00019525
170 2 3.2245 19.5475 2.279 29869.7 29871.8 -82132 -4.35523e-05 0.365923 -3.08718e-05
171 2 1.61225 19.5475 4.55799 43157 43159.1 13509.7 -6.34598e-05 0.365384 -0.000210894
172 2 2.41837 20.9437 0 -205991 -205989 7857.41 -1.02314e-08 0.272641 -2.34012e-08
173 2 0.806124 20.9437 2.279 29869.7 29871.8 -82132 -9.15037e-09 0.365957 -1.6291e-09
174 2 4.03062 20.9437 4.55799 43157 43159.1 13509.7 1.27892e-09 0.365899 3.16685e-09
175 2 0 19.5475 6.83699 43283.9 43286.2 15713.4 -4.95317e-06 0.54395 -0.000273379
176 2 3.2245 19.5475 9.11598 43284.2 43286.4 15716 0.000173083 0.367215 -5.17584e-05
177 2 1.61225 19.5475 11.395 43284.2 43286.4 15716 -0.000112281 0.363433 1.97676e-05
178 2 2.41837 20.9437 6.83699 43283.9 43286.2 15713.4 -2.43604e-10 0.545306 2.00973e-09
179 2 0.806124 20.9437 9.11598 43284.3 43286.4 15716 -7.73443e-09 0.366823 3.04505e-11
180 2 4.03062 20.9437 11.395 43284.2 43286.4 15716 1.70523e-09 0.360401 -9.74416e-10
181 2 0 19.5475 13.674 43283.9 43286.2 15714.8 5.69072e-05 0.544711 -0.000205186
182 2 3.2245 19.5475 15.953 43284.3 43286.4 15716 0.000200532 0.367857 0.000183532
183 2 1.61225 19.5475 18.232 43284.2 43286.4 15714.6 0.000609129 0.370828 0.000241739
184 2 2.41837 20.9437 13.674 43283.9 43286.2 15714.9 -0 0.539543 2.20766e-09
185 2 0.806124 20.9437 15.953 43284.2 43286.4 15716 -9.68326e-09 0.365418 -4.08037e-09
186 2 4.03062 20.9437 18.232 43284.2 43286.3 15714.5 1.46162e-09 0.372447 2.67964e-09
187 2 0 19.5475 20.511 43156.7 43159 13508.6 1.6207e-05 0.544093 -4.06244e-05
188 2 3.2245 19.5475 22.79 29869.6 29871.7 -82132 -0.00452581 0.341892 -0.00216021
189 2 1.61225 19.5475 25.069 -205991 -205989 7858.56 0.00121201 0.0815628 -0.000540693
190 2 2.41837 20.9437 20.511 43156.6 43158.9 13508.5 -1.8118e-09 0.553989 -5.05478e-09
191 2 0.806124 20.9437 22.79 29869.7 29871.8 -82132 -8.95245e-09 0.366021 -2.16199e-09
192 2 4.03062 20.9437 25.069 -205991 -205989 7858.58 8.34344e-09 0.100348 1.73416e-08
193 2 0 22.34 0 -205991 -205989 7857.41 -1.32749e-06 0.27198 -0.000195219
194 2 3.2245 22.34 2.279 29869.7 29871.8 -82132 4.3551e-05 0.365923 3.08671e-05
195 2 1.61225 22.34 4.55799 43157 43159.1 13509.7 6.34609e-05 0.365384 0.000210897
196 2 2.41837 23.7362 0 -205991 -205989 7857.41 9.96905e-05 0.272672 -0.000316422
197 2 0.806124 23.7362 2.279 29869.7 29871.8 -82132 1.6076e-05 0.365969 1.8391e-05
198 2 4.03062 23.7362 4.55799 43157 43159.1 13509.7 0.000114465 0.365773 0.000245466
199 2 0 22.34 6.83699 43283.9 43286.2 15713.4 4.94857e-06 0.54395 0.000273383
200 2 3.2245 22.34 9.11598 43284.2 43286.4 15716 -0.000173084 0.367215 5.17509e-05
201 2 1.61225 22.34 11.395 43284.2 43286.4 15716 0.000112284 0.363433 -1.97644e-05
202 2 2.41837 23.7362 6.83699 43283.9 43286.2 15713.4 -0.000117911 0.545037 0.000250099
203 2 0.806124 23.7362 9.11598 43284.3 43286.4 15716 -0.000152134 0.366788 -2.76071e-05
204 2 4.03062 23.7362 11.395 43284.2 43286.4 15716 0.000888029 0.360288 0.0011147
205 2 0 22.34 13.674 43283.9 43286.2 15714.8 -5.69098e-05 0.544711 0.00020519
206 2 3.2245 22.34 15.953 43284.3 43286.4 15716 -0.000200532 0.367857 -0.00018353
207 2 1.61225 22.34 18.232 43284.2 43286.4 15714.6 -0.000609129 0.370828 -0.000241751
208 2 2.41837 23.7362 13.674 43283.9 43286.2 15714.9 0.00106325 0.539033 0.000498179
209 2 0.806124 23.7362 15.953 43284.2 43286.4 15716 0.000552488 0.364815 0.000712304
210 2 4.03062 23.7362 18.232 43284.2 43286.3 15714.5 -0.00881344 0.379422 -0.00456776
211 2 0 22.34 20.511 43156.7 43159 13508.6 -1.62087e-05 0.544093 4.06309e-05
212 2 3.2245 22.34 22.79 29869.6 29871.7 -82132 0.00452581 0.341892 0.00216021
213 2 1.61225 22.34 25.069 -205991 -205989 7858.56 -0.00121202 0.0815628 0.000540658
214 2 2.41837 23.7362 20.511 43156.6 43158.9 13508.5 -0.0067062 0.554629 -0.00161297
215 2 0.806124 23.7362 22.79 29869.7 29871.8 -82132 -5.94308e-05 0.366002 -1.90561e-05
216 2 4.03062 23.7362 25.069 -205991 -205989 7858.57 0.015336 0.0969967 0.000446441
217 2 0 25.1325 0 -205991 -205989 7857.41 -2.29685e-06 0.271979 -0.000336813
218 2 3.2245 25.1325 2.279 29869.7 29871.8 -82132 8.59264e-05 0.365982 8.56976e-05
219 2 1.61225 25.1325 4.55799 43157 43159.1 13509.7 0.000144208 0.365351 0.000509915
220 2 2.41837 26.5287 0 -205991 -205989 7857.41 0.000103636 0.272683 -0.000270944
221 2 0.806124 26.5287 2.279 29869.7 29871.8 -82132 9.87613e-06 0.365995 4.68486e-05
222 2 4.03062 26.5287 4.55799 43157 43159.1 13509.7 0.00013812 0.365478 0.000416738
223 2 0 25.1325 6.83699 43283.9 43286.2 15713.4 1.06123e-05 0.543978 0.000696338
224 2 3.2245 25.1325 9.11598 43284.2 43286.4 15716 -0.000598138 0.367601 -9.76587e-05
225 2 1.61225 25.1325 11.395 43284.2 43286.4 15716 3.68635e-06 0.364902 -0.000281141
226 2 2.41837 26.5287 6.83699 43283.9 43286.2 15713.4 -0.000143151 0.544335 0.00036539
227 2 0.806124 26.5287 9.11598 43284.3 43286.4 15716 -0.00024612 0.366639 -2.80293e-05
228 2 4.03062 26.5287 11.395 43284.2 43286.4 15716 0.00132326 0.361148 0.00182228
229 2 0 25.1325 13.674 43283.9 43286.2 15714.8 -0.000152847 0.54456 4.40435e-05
230 2 3.2245 25.1325 15.953 43284.3 43286.4 15716 -0.000202168 0.366676 -0.000225581
231 2 1.61225 25.1325 18.232 43284.2 43286.4 15714.6 -0.00113926 0.369512 -0.000454938
232 2 2.41837 26.5287 13.674 43283.9 43286.2 15714.9 0.00207022 0.538679 0.00100778
233 2 0.806124 26.5287 15.953 43284.2 43286.4 15716 0.00150819 0.363498 0.00124469
234 2 4.03062 26.5287 18.232 43284.2 43286.3 15714.5 -0.0115 0.380881 -0.00685118
235 2 0 25.1325 20.511 43156.7 43159 13508.6 2.23463e-05 0.543972 -4.16718e-05
236 2 3.2245 25.1325 22.79 29869.6 29871.7 -82132 0.00432675 0.350846 0.00394375
237 2 1.61225 25.1325 25.069 -205991 -205989 7858.56 -0.0051533 0.0859994 0.000981701
238 2 2.41837 26.5287 20.511 43156.6 43158.9 13508.6 -0.00724457 0.55192 -0.00225627
239 2 0.806124 26.5287 22.79 29869.7 29871.8 -82132 0.000117553 0.365911 3.47647e-05
240 2 4.03062 26.5287 25.069 -205991 -205989 7858.56 0.0235558 0.0865951 0.003932
241 2 0 27.925 0 -205991 -205989 7857.41 2.63245e-07 0.271983 -3.57372e-05
242 2 3.2245 27.925 2.279 29869.7 29871.8 -82132 2.38895e-05 0.366059 9.63469e-05
243 2 1.61225 27.925 4.55799 43157 43159.1 13509.7 0.000112182 0.365401 0.000469185
244 2 2.41837 29.3212 0 -205991 -205989 7857.41 8.49885e-06 0.272526 5.73824e-05
245 2 0.806124 29.3212 2.279 29869.7 29871.8 -82132 -1.77593e-05 0.366011 6.07489e-05
246 2 4.03062 29.3212 4.55799 43157 43159.1 13509.7 5.26044e-05 0.365275 0.000427389
247 2 0 27.925 6.83699 43283.9 43286.2 15713.4 4.85131e-06 0.544019 0.000745374
248 2 3.2245 27.925 9.11598 43284.2 43286.4 15716 -0.000868892 0.367584 -0.000465876
249 2 1.61225 27.925 11.395 43284.2 43286.4 15716 -0.000519668 0.366577 -0.000650362
250 2 2.41837 29.3212 6.83699 43283.9 43286.2 15713.4 -2.43677e-06 0.543587 0.000321708
251 2 0.806124 29.3212 9.11598 43284.3 43286.4 15716 -0.000204092 0.366343 7.64166e-05
252 2 4.03062 29.3212 11.395 43284.2 43286.4 15716 0.000503226 0.364179 0.00106208
253 2 0 27.925 13.674 43283.9 43286.2 15714.8 -0.000137257 0.544261 -0.00081088
254 2 3.2245 27.925 15.953 43284.3 43286.4 15716 9.69043e-05 0.366143 -0.00020373
255 2 1.61225 27.925 18.232 43284.2 43286.3 15714.6 1.7142e-05 0.367145 -8.01688e-05
256 2 2.41837 29.3212 13.674 43283.9 43286.2 15714.8 0.00163587 0.540786 0.00087779
257 2 0.806124 29.3212 15.953 43284.2 43286.4 15716 0.00183257 0.36339 0.000687835
258 2 4.03062 29.3212 18.232 43284.2 43286.4 15714.6 -0.00432863 0.370966 -0.00299613
259 2 0 27.925 20.511 43156.7 43159 13508.6 0.000119427 0.543882 4.31184e-05
260 2 3.2245 27.925 22.79 29869.7 29871.8 -82132 -0.00476678 0.363542 0.000992086
261 2 1.61225 27.925 25.069 -205991 -205989 7858.56 -0.00746005 0.0918148 0.000362382
262 2 2.41837 29.3212 20.511 43156.7 43159 13508.6 -0.00280715 0.547008 -0.0013067
263 2 0.806124 29.3212 22.79 29869.7 29871.8 -82132 -0.000318793 0.366221 -8.39927e-05
264 2 4.03062 29.3212 25.069 -205991 -205989 7858.55 0.0044236 0.0844319 0.00549926
265 2 0 30.7174 0 -205991 -205989 7857.41 3.46889e-06 0.271994 0.000356693
266 2 3.2245 30.7174 2.279 29869.7 29871.8 -82132 -8.61876e-05 0.366085 4.54331e-05
267 2 1.61225 30.7174 4.55799 43157 43159.1 13509.7 -9.41494e-06 0.365613 0.000140434
268 2 2.41837 32.1137 0 -205991 -205989 7857.41 -5.00579e-05 0.2722 0.000274551
269 2 0.806124 32.1137 2.279 29869.7 29871.8 -82132 -3.50346e-05 0.365997 6.18625e-05
270 2 4.03062 32.1137 4.55799 43157 43159.1 13509.7 -7.91663e-05 0.365406 0.000261496
271 2 0 30.7174 6.83699 43283.9 43286.2 15713.4 -7.03817e-06 0.54404 0.000355765
272 2 3.2245 30.7174 9.11598 43284.2 43286.4 15716 -0.000602345 0.366883 -0.00050813
273 2 1.61225 30.7174 11.395 43284.2 43286.4 15716 -0.000781581 0.367162 -0.000565097
274 2 2.41837 32.1137 6.83699 43283.9 43286.2 15713.4 0.000173413 0.543312 0.000166999
275 2 0.806124 32.1137 9.11598 43284.2 43286.4 15716 -2.01753e-05 0.365984 0.000221397
276 2 4.03062 32.1137 11.395 43284.2 43286.4 15716 -0.000594026 0.366739 -0.000344142
277 2 0 30.7174 13.674 43283.9 43286.2 15714.9 -2.98279e-05 0.544028 -0.00104857
278 2 3.2245 30.7174 15.953 43284.3 43286.4 15716 0.00172777 0.364183 0.000798917
279 2 1.61225 30.7174 18.232 43284.2 43286.3 15714.5 0.00259193 0.364103 0.000653645
280 2 2.41837 32.1137 13.674 43283.9 43286.2 15714.9 -0.000218331 0.544018 9.19447e-05
281 2 0.806124 32.1137 15.953 43284.2 43286.4 15716 0.000642593 0.364992 -0.000376051
282 2 4.03062 32.1137 18.232 43284.2 43286.4 15714.6 -0.000577172 0.366892 -0.000744119
283 2 0 30.7174 20.511 43156.6 43158.9 13508.6 -8.38049e-06 0.543998 0.000758789
284 2 3.2245 30.7174 22.79 29869.7 29871.8 -82132 -0.00308949 0.36689 -0.000574185
285 2 1.61225 30.7174 25.069 -205991 -205989 7858.57 -0.0040883 0.0951175 -0.00031719
286 2 2.41837 32.1137 20.511 43156.6 43159 13508.6 0.000523074 0.544367 -0.000436164
287 2 0.806124 32.1137 22.79 29869.7 29871.8 -82132 0.000207583 0.366216 6.22735e-05
288 2 4.03062 32.1137 25.069 -205991 -205989 7858.56 -0.00728487 0.0915676 0.00152994
289 2 0 33.5099 0 -205991 -205989 7857.41 1.96083e-06 0.272007 0.000395865
290 2 3.2245 33.5099 2.279 29869.7 29871.8 -82132 -0.000114326 0.366026 5.29079e-06
291 2 1.61225 33.5099 4.55799 43157 43159.1 13509.7 -0.000108433 0.365862 -9.61027e-05
292 2 2.41837 34.9062 0 -205991 -205989 7857.41 3.69403e-05 0.271901 0.000174454
293 2 0.806124 34.9062 2.279 29869.7 29871.8 -82132 -2.08352e-05 0.36596 8.30535e-05
294 2 4.03062 34.9062 4.55799 43157 43159.1 13509.7 -0.000144564 0.365729 7.05908e-05
295 2 0 33.5099 6.83699 43283.9 43286.2 15713.4 -9.32641e-06 0.544028 -0.000128198
296 2 3.2245 33.5099 9.11598 43284.3 43286.4 15716 -3.20116e-05 0.36608 -0.000171643
297 2 1.61225 33.5099 11.395 43284.2 43286.4 15716 -0.000462432 0.366709 -4.48752e-05
298 2 2.41837 34.9062 6.83699 43283.9 43286.2 15713.4 0.00014708 0.543628 -1.01136e-05
299 2 0.806124 34.9062 9.11598 43284.2 43286.4 15716 0.000131047 0.365785 0.000175429
300 2 4.03062 34.9062 11.395 43284.2 43286.4 15716 -0.000537251 0.366817 -0.000554693
301 2 0 33.5099 13.674 43283.9 43286.2 15714.9 2.49615e-05 0.543972 -0.000370395
302 2 3.2245 33.5099 15.953 43284.2 43286.4 15716 0.00145324 0.36431 0.00124406
303 2 1.61225 33.5099 18.232 43284.2 43286.3 15714.5 0.00209999 0.364105 0.000311545
304 2 2.41837 34.9062 13.674 43283.9 43286.2 15714.9 -0.000944061 0.544974 -0.000162561
305 2 0.806124 34.9062 15.953 43284.2 43286.4 15716 -0.000324638 0.366054 -0.00043071
306 2 4.03062 34.9062 18.232 43284.2 43286.3 15714.5 0.00170323 0.364852 0.000931286
307 2 0 33.5099 20.511 43156.6 43158.9 13508.6 -9.9206e-05 0.544071 0.000305815
308 2 3.2245 33.5099 22.79 29869.7 29871.8 -82132 -0.000344835 0.366281 -0.000285807
309 2 1.61225 33.5099 25.069 -205991 -205989 7858.56 0.00104333 0.0951339 -0.000220913
310 2 2.41837 34.9062 20.511 43156.6 43158.9 13508.6 0.00186302 0.543124 0.000164078
311 2 0.806124 34.9062 22.79 29869.7 29871.8 -82132 0.000621656 0.365862 8.68648e-05
312 2 4.03062 34.9062 25.069 -205991 -205989 7858.57 -0.00238065 0.0945207 -0.000727974
313 2 0 36.3024 0 -205991 -205989 7857.41 -3.87492e-06 0.272012 8.5115e-05
314 2 3.2245 36.3024 2.279 29869.7 29871.8 -82132 -3.57052e-05 0.365924 3.16264e-05
315 2 1.61225 36.3024 4.55799 43157 43159.1 13509.7 -9.84377e-05 0.36596 -1.94474e-05
316 2 2.41837 37.6987 0 -205991 -205989 7857.41 0.00017328 0.271805 -7.07823e-05
317 2 0.806124 37.6987 2.279 29869.7 29871.8 -82132 9.36474e-06 0.365924 0.000110223
318 2 4.03062 37.6987 4.55799 43157 43159.1 13509.7 -8.39515e-05 0.365874 2.24647e-05
319 2 0 36.3024 6.83699 43283.9 43286.2 15713.4 -2.16633e-06 0.544008 -0.000261552
320 2 3.2245 36.3024 9.11598 43284.2 43286.4 15716 0.000286377 0.36572 0.000127892
321 2 1.61225 36.3024 11.395 43284.2 43286.4 15716 6.68935e-05 0.365991 0.000370891
322 2 2.41837 37.6987 6.83699 43283.9 43286.2 15713.4 -3.69439e-05 0.544024 -8.19019e-05
323 2 0.806124 37.6987 9.11598 43284.2 43286.4 15716 7.26537e-05 0.365843 -4.16827e-05
324 2 4.03062 37.6987 11.395 43284.2 43286.4 15716 1.33365e-05 0.366073 -2.96978e-06
325 2 0 36.3024 13.674 43283.9 43286.2 15714.9 1.69692e-05 0.543997 0.000394436
326 2 3.2245 36.3024 15.953 43284.2 43286.4 15716 -0.00054943 0.366091 0.000131808
327 2 1.61225 36.3024 18.232 43284.2 43286.3 15714.5 -0.000257783 0.36581 -0.000360572
328 2 2.41837 37.6987 13.674 43283.9 43286.2 15714.9 -0.00030548 0.544317 0.000160255
329 2 0.806124 37.6987 15.953 43284.2 43286.4 15716 -0.000293854 0.366114 5.84613e-05
330 2 4.03062 37.6987 18.232 43284.2 43286.3 15714.5 0.000287312 0.365593 0.000392337
331 2 0 36.3024 20.511 43156.6 43158.9 13508.6 -2.24444e-05 0.544032 -0.000497099
332 2 3.2245 36.3024 22.79 29869.7 29871.8 -82132 0.000622631 0.36591 -5.77015e-05
333 2 1.61225 36.3024 25.069 -205991 -205989 7858.56 0.00169169 0.0938693 0.000168526
334 2 2.41837 37.6987 20.511 43156.6 43158.9 13508.6 5.71281e-05 0.54384 -0.000123333
335 2 0.806124 37.6987 22.79 29869.7 29871.8 -82132 5.16967e-05 0.365911 -0.000118793
336 2 4.03062 37.6987 25.069 -205991 -205989 7858.56 0.00122124 0.0940845 -0.000345632
337 2 0 39.0949 0 -205991 -205989 7857.41 -7.30186e-06 0.27201 -0.000192153
338 2 3.2245 39.0949 2.279 29869.7 29871.8 -82132 5.168e-05 0.365839 7.37484e-05
339 2 1.61225 39.0949 4.55799 43157 43159.1 13509.7 -1.90556e-05 0.365885 0.000160499
340 2 2.41837 40.4912 0 -205991 -205989 7857.41 0.000172204 0.271881 -0.000157691
341 2 0.806124 40.4912 2.279 29869.7 29871.8 -82132 2.10509e-05 0.365905 8.73975e-05
342 2 4.03062 40.4912 4.55799 43157 43159.1 13509.7 1.93079e-07 0.365772 4.63598e-05
343 2 0 39.0949 6.83699 43283.9 43286.2 15713.4 2.05268e-06 0.544005 -8.0697e-05
344 2 3.2245 39.0949 9.11598 43284.2 43286.4 15716 0.000102836 0.365873 8.00528e-05
345 2 1.61225 39.0949 11.395 43284.2 43286.4 15716 0.000191203 0.365772 0.000253069
346 2 2.41837 40.4912 6.83699 43283.9 43286.2 15713.4 -0.000109255 0.544084 -4.43222e-05
347 2 0.806124 40.4912 9.11598 43284.2 43286.4 15716 -2.96525e-05 0.365948 -0.000120443
348 2 4.03062 40.4912 11.395 43284.2 43286.4 15716 0.000212679 0.365827 0.000280943
349 2 0 39.0949 13.674 43283.9 43286.2 15714.9 -1.48415e-06 0.544018 0.000505311
350 2 3.2245 39.0949 15.953 43284.2 43286.4 15716 -0.000459216 0.366201 -0.000116649
351 2 1.61225 39.0949 18.232 43284.2 43286.3 15714.5 -0.000538906 0.366213 -0.000225913
352 2 2.41837 40.4912 13.674 43283.9 43286.2 15714.9 0.00022421 0.543879 0.000300456
353 2 0.806124 40.4912 15.953 43284.2 43286.4 15716 3.15923e-05 0.365916 0.000271658
354 2 4.03062 40.4912 18.232 43284.2 43286.3 15714.5 -0.000545416 0.366166 -0.000324242
355 2 0 39.0949 20.511 43156.6 43158.9 13508.6 1.00002e-05 0.544004 -0.000378527