ITEM: TIMESTEP
0
ITEM: NUMBER OF ATOMS
3074
ITEM: BOX BOUNDS pp pp pp
0.0000000000000000e+00 3.8693948398131120e+01
0.0000000000000000e+00 4.4679925159782847e+01
0.0000000000000000e+00 6.0000000000000000e+01
ITEM: ATOMS id type x y z v_stress_xx v_stress_yy v_stress_zz v_stress_xy v_stress_xz v_stress_yz
1 2 0 0 0 2596.05 2596.03 -99.025 -4.65224e-08 -0.00342803 -1.665e-06
2 2 3.2245 0 2.279 -1940.76 -1940.9 5336.46 2.63328e-06 -0.0237678 2.80867e-06
3 2 1.61225 0 4.55799 -2804.09 -2804.23 -877.784 7.78499e-07 -0.0237661 7.34795e-06
4 2 2.41837 1.39625 0 2596.05 2596.03 -99.025 2.17027e-06 -0.00342645 -1.98738e-06
5 2 0.806124 1.39625 2.279 -1940.76 -1940.9 5336.46 1.36785e-06 -0.0237744 5.67859e-06
6 2 4.03062 1.39625 4.55799 -2804.09 -2804.23 -877.784 1.24724e-08 -0.0237657 3.01225e-06
7 2 0 0 6.83699 -2812.33 -2812.48 -1020.96 7.08618e-08 -0.0353468 1.38576e-06
8 2 3.2245 0 9.11598 -2812.36 -2812.5 -1021.14 -2.66078e-06 -0.0237856 -9.89399e-07
9 2 1.61225 0 11.395 -2812.36 -2812.5 -1021.14 3.01545e-06 -0.0237775 2.05311e-06
10 2 2.41837 1.39625 6.83699 -2812.33 -2812.48 -1020.96 -7.09879e-06 -0.0353514 -2.87979e-06
11 2 0.806124 1.39625 9.11598 -2812.36 -2812.5 -1021.14 -1.92662e-06 -0.0237772 -7.82572e-06
12 2 4.03062 1.39625 11.395 -2812.36 -2812.5 -1021.14 1.38186e-05 -0.0237693 1.82541e-05
13 2 0 0 13.674 -2812.34 -2812.49 -1021.06 -1.67951e-07 -0.0353467 9.88497e-06
14 2 3.2245 0 15.953 -2812.36 -2812.5 -1021.14 1.37048e-06 -0.0237682 1.74751e-06
15 2 1.61225 0 18.232 -2812.36 -2812.5 -1021.04 -3.94368e-06 -0.0237763 3.64436e-07
16 2 2.41837 1.39625 13.674 -2812.34 -2812.49 -1021.06 1.45678e-05 -0.0353381 1.95219e-05
17 2 0.806124 1.39625 15.953 -2812.36 -2812.5 -1021.14 2.05269e-06 -0.0237751 1.76508e-05
18 2 4.03062 1.39625 18.232 -2812.36 -2812.5 -1021.04 -3.54379e-05 -0.0237913 -2.10675e-05
19 2 0 0 20.511 -2804.07 -2804.22 -877.709 1.87372e-07 -0.0353462 -4.82777e-06
20 2 3.2245 0 22.79 -1940.76 -1940.9 5336.46 -1.14077e-05 -0.0237845 -2.73076e-06
21 2 1.61225 0 25.069 1639.46 1639.45 -62.5457 -2.93217e-06 -0.000747563 -6.61919e-07
22 2 2.41837 1.39625 20.511 -2804.07 -2804.22 -877.709 -3.29064e-05 -0.0353608 -1.70301e-05
23 2 0.806124 1.39625 22.79 -1940.76 -1940.9 5336.46 -7.88527e-06 -0.0237802 -8.06891e-06
24 2 4.03062 1.39625 25.069 1639.46 1639.45 -62.5457 4.39509e-07 -0.000745948 1.77625e-06
25 2 0 2.7925 0 2596.05 2596.03 -99.025 -9.19051e-08 -0.00342807 -2.42147e-06
26 2 3.2245 2.7925 2.279 -1940.76 -1940.9 5336.46 3.35779e-06 -0.0237701 4.79175e-06
27 2 1.61225 2.7925 4.55799 -2804.09 -2804.23 -877.784 -1.23775e-06 -0.0237731 1.04285e-05
28 2 2.41837 4.18874 0 2596.05 2596.03 -99.025 2.18362e-06 -0.00342549 -8.92372e-07
29 2 0.806124 4.18874 2.279 -1940.76 -1940.9 5336.46 6.08185e-07 -0.0237756 7.16199e-06
30 2 4.03062 4.18874 4.55799 -2804.09 -2804.23 -877.784 -5.45443e-06 -0.0237724 1.45961e-06
31 2 0 2.7925 6.83699 -2812.33 -2812.48 -1020.96 1.33794e-07 -0.0353463 -5.24283e-06
32 2 3.2245 2.7925 9.11598 -2812.36 -2812.5 -1021.14 6.68173e-06 -0.0237723 5.20141e-06
33 2 1.61225 2.7925 11.395 -2812.36 -2812.5 -1021.14 1.24235e-05 -0.0237657 1.6443e-05
34 2 2.41837 4.18874 6.83699 -2812.33 -2812.48 -1020.96 -2.40026e-06 -0.0353476 -5.32126e-06
35 2 0.806124 4.18874 9.11598 -2812.36 -2812.5 -1021.14 4.72027e-06 -0.0237704 -2.7085e-06
36 2 4.03062 4.18874 11.395 -2812.36 -2812.5 -1021.14 8.6655e-07 -0.0237853 -1.93434e-07
37 2 0 2.7925 13.674 -2812.34 -2812.49 -1021.06 -9.58502e-08 -0.0353471 3.28327e-05
38 2 3.2245 2.7925 15.953 -2812.36 -2812.5 -1021.14 -2.98373e-05 -0.0237936 -7.57922e-06
39 2 1.61225 2.7925 18.232 -2812.36 -2812.5 -1021.04 -3.50148e-05 -0.0237944 -1.46785e-05
40 2 2.41837 4.18874 13.674 -2812.34 -2812.49 -1021.06 -1.98482e-05 -0.0353665 1.04125e-05
41 2 0.806124 4.18874 15.953 -2812.36 -2812.5 -1021.14 -1.90933e-05 -0.023788 3.79857e-06
42 2 4.03062 4.18874 18.232 -2812.36 -2812.49 -1021.04 1.86684e-05 -0.0237541 2.54923e-05
43 2 0 2.7925 20.511 -2804.07 -2804.22 -877.709 6.50144e-07 -0.0353462 -2.45943e-05
44 2 3.2245 2.7925 22.79 -1940.76 -1940.9 5336.46 4.07407e-06 -0.0237747 3.18224e-07
45 2 1.61225 2.7925 25.069 1639.46 1639.45 -62.5457 -1.35879e-06 -0.000745121 2.43609e-07
46 2 2.41837 4.18874 20.511 -2804.07 -2804.22 -877.709 3.7118e-06 -0.0353356 -8.01372e-06
47 2 0.806124 4.18874 22.79 -1940.76 -1940.9 5336.46 3.35876e-06 -0.0237748 -7.71838e-06
48 2 4.03062 4.18874 25.069 1639.46 1639.45 -62.5457 9.7199e-06 -0.000748811 -2.75069e-06
49 2 0 5.58499 0 2596.05 2596.03 -99.025 -4.88215e-08 -0.0034281 1.07271e-06
50 2 3.2245 5.58499 2.279 -1940.76 -1940.9 5336.46 -2.31989e-06 -0.0237756 2.0549e-06
51 2 1.61225 5.58499 4.55799 -2804.09 -2804.23 -877.784 -6.39581e-06 -0.0237779 -1.26358e-06
52 2 2.41837 6.98124 0 2596.05 2596.03 -99.025 4.65636e-07 -0.0034267 2.19871e-06
53 2 0.806124 6.98124 2.279 -1940.76 -1940.9 5336.46 -1.35385e-06 -0.023778 5.39598e-06
54 2 4.03062 6.98124 4.55799 -2804.09 -2804.23 -877.784 -9.39307e-06 -0.023763 4.58687e-06
55 2 0 5.58499 6.83699 -2812.33 -2812.48 -1020.96 -1.40804e-07 -0.0353465 -1.69941e-05
56 2 3.2245 5.58499 9.11598 -2812.36 -2812.5 -1021.14 1.86071e-05 -0.0237624 8.30975e-06
57 2 1.61225 5.58499 11.395 -2812.36 -2812.5 -1021.14 4.34639e-06 -0.0237799 2.40984e-05
58 2 2.41837 6.98124 6.83699 -2812.33 -2812.48 -1020.96 9.55652e-06 -0.0353218 -6.57038e-07
59 2 0.806124 6.98124 9.11598 -2812.36 -2812.5 -1021.14 8.51479e-06 -0.0237666 1.13983e-05
60 2 4.03062 6.98124 11.395 -2812.36 -2812.5 -1021.14 -3.49076e-05 -0.0238337 -3.60403e-05
61 2 0 5.58499 13.674 -2812.34 -2812.49 -1021.06 1.10254e-06 -0.0353458 2.56281e-05
62 2 3.2245 5.58499 15.953 -2812.36 -2812.5 -1021.14 -3.56988e-05 -0.0237865 8.56424e-06
63 2 1.61225 5.58499 18.232 -2812.36 -2812.5 -1021.04 -1.67492e-05 -0.0237682 -2.34278e-05
64 2 2.41837 6.98124 13.674 -2812.34 -2812.49 -1021.06 -6.13397e-05 -0.0354092 -1.05622e-05
65 2 0.806124 6.98124 15.953 -2812.36 -2812.5 -1021.14 -2.10931e-05 -0.0237841 -2.79854e-05
66 2 4.03062 6.98124 18.232 -2812.36 -2812.5 -1021.04 0.000110665 -0.023706 6.05091e-05
67 2 0 5.58499 20.511 -2804.07 -2804.22 -877.709 -1.45831e-06 -0.035348 -3.22986e-05
68 2 3.2245 5.58499 22.79 -1940.76 -1940.9 5336.46 4.0455e-05 -0.0237747 -3.74909e-06
69 2 1.61225 5.58499 25.069 1639.46 1639.45 -62.5457 1.3464e-05 -0.000747099 1.34128e-06
70 2 2.41837 6.98124 20.511 -2804.07 -2804.22 -877.709 0.000121048 -0.0352891 1.06611e-05
71 2 0.806124 6.98124 22.79 -1940.76 -1940.9 5336.46 4.03915e-05 -0.0237716 5.64381e-06
72 2 4.03062 6.98124 25.069 1639.46 1639.45 -62.5457 -1.89474e-05 -0.000752283 -5.79396e-06
73 2 0 8.37749 0 2596.05 2596.03 -99.025 2.47203e-08 -0.00342803 4.98894e-06
74 2 3.2245 8.37749 2.279 -1940.76 -1940.9 5336.46 -7.42804e-06 -0.0237823 3.43831e-07
75 2 1.61225 8.37749 4.55799 -2804.09 -2804.23 -877.784 -7.04559e-06 -0.0237716 -6.24436e-06
76 2 2.41837 9.77373 0 2596.05 2596.03 -99.025 -6.30864e-07 -0.00343047 3.4601e-06
77 2 0.806124 9.77373 2.279 -1940.76 -1940.9 5336.46 -2.27641e-06 -0.0237803 4.01949e-06
78 2 4.03062 9.77373 4.55799 -2804.09 -2804.23 -877.784 -5.14375e-06 -0.023742 1.69906e-05
79 2 0 8.37749 6.83699 -2812.33 -2812.48 -1020.96 -6.05968e-07 -0.0353478 -8.32985e-06
80 2 3.2245 8.37749 9.11598 -2812.36 -2812.5 -1021.14 -2.07968e-06 -0.0237858 -1.11521e-05
81 2 1.61225 8.37749 11.395 -2812.36 -2812.5 -1021.14 -3.00463e-05 -0.0238266 -2.91563e-06
82 2 2.41837 9.77373 6.83699 -2812.33 -2812.48 -1020.96 1.12673e-05 -0.0353013 1.08505e-05
83 2 0.806124 9.77373 9.11598 -2812.36 -2812.5 -1021.14 -1.3109e-06 -0.0237795 1.4385e-05
84 2 4.03062 9.77373 11.395 -2812.36 -2812.5 -1021.14 -3.85964e-05 -0.0238286 -2.23603e-05
85 2 0 8.37749 13.674 -2812.34 -2812.49 -1021.06 1.62193e-06 -0.0353441 -2.40663e-05
86 2 3.2245 8.37749 15.953 -2812.36 -2812.5 -1021.14 9.4423e-05 -0.0236708 8.08322e-05
87 2 1.61225 8.37749 18.232 -2812.36 -2812.49 -1021.04 0.000136445 -0.0236574 2.02421e-05
88 2 2.41837 9.77373 13.674 -2812.34 -2812.49 -1021.06 -1.4186e-05 -0.0353471 5.97412e-06
89 2 0.806124 9.77373 15.953 -2812.36 -2812.5 -1021.14 4.17519e-05 -0.0237151 -2.44336e-05
90 2 4.03062 9.77373 18.232 -2812.36 -2812.5 -1021.04 -3.75013e-05 -0.0238385 -4.83486e-05
91 2 0 8.37749 20.511 -2804.07 -2804.22 -877.708 -6.446e-06 -0.0353506 1.98698e-05
92 2 3.2245 8.37749 22.79 -1940.76 -1940.9 5336.46 -2.24052e-05 -0.0237988 -1.85699e-05
93 2 1.61225 8.37749 25.069 1639.46 1639.45 -62.5457 8.30373e-06 -0.000757163 -1.75824e-06
94 2 2.41837 9.77373 20.511 -2804.07 -2804.22 -877.71 3.39863e-05 -0.0353698 -2.83394e-05
95 2 0.806124 9.77373 22.79 -1940.76 -1940.9 5336.46 1.34876e-05 -0.0237946 4.0461e-06
96 2 4.03062 9.77373 25.069 1639.46 1639.45 -62.5457 -5.79797e-05 -0.00072878 1.21766e-05
97 2 0 11.17 0 2596.05 2596.03 -99.025 4.37137e-08 -0.00342787 4.49519e-06
98 2 3.2245 11.17 2.279 -1940.76 -1940.9 5336.46 -5.60002e-06 -0.0237861 2.95215e-06
99 2 1.61225 11.17 4.55799 -2804.09 -2804.23 -877.784 -6.11911e-07 -0.0237554 9.12436e-06
100 2 2.41837 12.5662 0 2596.05 2596.03 -99.025 1.07176e-07 -0.00343457 7.23302e-07
101 2 0.806124 12.5662 2.279 -1940.76 -1940.9 5336.46 -1.15419e-06 -0.0237813 3.94661e-06
102 2 4.03062 12.5662 4.55799 -2804.09 -2804.23 -877.784 3.41809e-06 -0.0237335 2.77694e-05
103 2 0 11.17 6.83699 -2812.33 -2812.48 -1020.96 -4.57108e-07 -0.0353486 2.31157e-05
104 2 3.2245 11.17 9.11598 -2812.36 -2812.5 -1021.14 -3.91368e-05 -0.0238379 -3.3015e-05
105 2 1.61225 11.17 11.395 -2812.36 -2812.5 -1021.14 -5.07827e-05 -0.0238561 -3.67169e-05
106 2 2.41837 12.5662 6.83699 -2812.33 -2812.48 -1020.96 -1.58248e-07 -0.0353191 2.0903e-05
107 2 0.806124 12.5662 9.11598 -2812.36 -2812.5 -1021.14 -1.32609e-05 -0.0238029 4.96482e-06
108 2 4.03062 12.5662 11.395 -2812.36 -2812.5 -1021.13 3.2697e-05 -0.0236622 6.90084e-05
109 2 0 11.17 13.674 -2812.34 -2812.49 -1021.06 -1.93767e-06 -0.0353478 -6.81298e-05
110 2 3.2245 11.17 15.953 -2812.36 -2812.5 -1021.14 0.00011226 -0.0236625 5.19089e-05
111 2 1.61225 11.17 18.232 -2812.36 -2812.5 -1021.04 0.000168408 -0.0236573 4.24702e-05
112 2 2.41837 12.5662 13.674 -2812.34 -2812.49 -1021.06 0.000106289 -0.0351371 5.70339e-05
113 2 0.806124 12.5662 15.953 -2812.36 -2812.5 -1021.13 0.00011907 -0.023611 4.46912e-05
114 2 4.03062 12.5662 18.232 -2812.36 -2812.5 -1021.04 -0.000281249 -0.0241032 -0.000194672
115 2 0 11.17 20.511 -2804.07 -2804.22 -877.709 -5.44356e-07 -0.0353459 4.93014e-05
116 2 3.2245 11.17 22.79 -1940.76 -1940.9 5336.46 -0.000200737 -0.0238384 -3.73072e-05
117 2 1.61225 11.17 25.069 1639.46 1639.45 -62.5457 -3.25385e-05 -0.000757033 -2.52441e-06
118 2 2.41837 12.5662 20.511 -2804.07 -2804.22 -877.71 -0.000182393 -0.0355414 -8.49015e-05
119 2 0.806124 12.5662 22.79 -1940.76 -1940.9 5336.46 -2.07135e-05 -0.0237949 -5.45734e-06
120 2 4.03062 12.5662 25.069 1639.46 1639.45 -62.5456 3.52071e-05 -0.000671987 4.37681e-05
121 2 0 13.9625 0 2596.05 2596.03 -99.025 3.32029e-09 -0.00342773 -4.50432e-07
122 2 3.2245 13.9625 2.279 -1940.76 -1940.9 5336.46 1.55238e-06 -0.0237844 6.26004e-06
123 2 1.61225 13.9625 4.55799 -2804.09 -2804.23 -877.784 7.28909e-06 -0.0237417 3.04852e-05
124 2 2.41837 15.3587 0 2596.05 2596.03 -99.025 1.30605e-06 -0.00343655 -3.41466e-06
125 2 0.806124 15.3587 2.279 -1940.76 -1940.9 5336.46 6.41752e-07 -0.0237802 3.0439e-06
126 2 4.03062 15.3587 4.55799 -2804.09 -2804.23 -877.784 8.97429e-06 -0.0237467 2.70775e-05
127 2 0 13.9625 6.83699 -2812.33 -2812.48 -1020.96 3.1544e-07 -0.0353472 4.84303e-05
128 2 3.2245 13.9625 9.11598 -2812.36 -2812.5 -1021.14 -5.64555e-05 -0.0238835 -3.027e-05
129 2 1.61225 13.9625 11.395 -2812.36 -2812.5 -1021.14 -3.37648e-05 -0.0238181 -4.22566e-05
130 2 2.41837 15.3587 6.83699 -2812.33 -2812.48 -1020.96 -9.30096e-06 -0.0353677 2.3741e-05
131 2 0.806124 15.3587 9.11598 -2812.36 -2812.5 -1021.14 -1.59914e-05 -0.0238221 -1.82121e-06
132 2 4.03062 15.3587 11.395 -2812.36 -2812.5 -1021.13 8.59779e-05 -0.0234653 0.000118401
133 2 0 13.9625 13.674 -2812.34 -2812.49 -1021.06 -8.91793e-06 -0.0353629 -5.2686e-05
134 2 3.2245 13.9625 15.953 -2812.36 -2812.5 -1021.14 6.29629e-06 -0.0237898 -1.32375e-05
135 2 1.61225 13.9625 18.232 -2812.36 -2812.5 -1021.04 1.11401e-06 -0.023855 -5.20876e-06
136 2 2.41837 15.3587 13.674 -2812.34 -2812.49 -1021.06 0.000134511 -0.0350002 6.54797e-05
137 2 0.806124 15.3587 15.953 -2812.36 -2812.5 -1021.13 9.79935e-05 -0.023618 8.08725e-05
138 2 4.03062 15.3587 18.232 -2812.36 -2812.49 -1021.04 -0.000747202 -0.0247474 -0.00044515
139 2 0 13.9625 20.511 -2804.07 -2804.22 -877.71 7.7598e-06 -0.0353383 2.80166e-06
140 2 3.2245 13.9625 22.79 -1940.76 -1940.89 5336.46 -0.000309717 -0.0236209 6.44598e-05
141 2 1.61225 13.9625 25.069 1639.46 1639.45 -62.5457 -5.93739e-05 -0.000730747 2.8842e-06
142 2 2.41837 15.3587 20.511 -2804.07 -2804.22 -877.709 -0.00047071 -0.0358606 -0.000146599
143 2 0.806124 15.3587 22.79 -1940.76 -1940.9 5336.46 7.638e-06 -0.0237748 2.25871e-06
144 2 4.03062 15.3587 25.069 1639.47 1639.45 -62.5457 0.000187479 -0.000689204 3.12945e-05
145 2 0 16.755 0 2596.05 2596.03 -99.025 -2.88392e-08 -0.00342768 -4.24484e-06
146 2 3.2245 16.755 2.279 -1940.76 -1940.9 5336.46 5.58306e-06 -0.0237794 5.56839e-06
147 2 1.61225 16.755 4.55799 -2804.09 -2804.23 -877.784 9.36963e-06 -0.0237384 3.31309e-05
148 2 2.41837 18.1512 0 2596.05 2596.03 -99.025 1.25646e-06 -0.00343642 -3.98752e-06
149 2 0.806124 18.1512 2.279 -1940.76 -1940.9 5336.46 1.044e-06 -0.0237785 1.19412e-06
150 2 4.03062 18.1512 4.55799 -2804.09 -2804.23 -877.784 7.43752e-06 -0.0237658 1.59493e-05
151 2 0 16.755 6.83699 -2812.33 -2812.48 -1020.96 6.90179e-07 -0.0353446 4.52438e-05
152 2 3.2245 16.755 9.11598 -2812.36 -2812.5 -1021.14 -3.88633e-05 -0.0238846 -6.34454e-06
153 2 1.61225 16.755 11.395 -2812.36 -2812.5 -1021.13 2.39411e-07 -0.0237092 -1.8267e-05
154 2 2.41837 18.1512 6.83699 -2812.33 -2812.48 -1020.96 -7.66106e-06 -0.0354133 1.62505e-05
155 2 0.806124 18.1512 9.11598 -2812.36 -2812.5 -1021.14 -9.88512e-06 -0.0238318 -1.79435e-06
156 2 4.03062 18.1512 11.395 -2812.36 -2812.5 -1021.13 5.76994e-05 -0.0234094 7.24275e-05
157 2 0 16.755 13.674 -2812.34 -2812.49 -1021.06 -9.93054e-06 -0.0353824 2.86159e-06
158 2 3.2245 16.755 15.953 -2812.36 -2812.5 -1021.14 -1.31358e-05 -0.0238245 -1.46568e-05
159 2 1.61225 16.755 18.232 -2812.36 -2812.5 -1021.04 -7.40221e-05 -0.0240087 -2.95591e-05
160 2 2.41837 18.1512 13.674 -2812.34 -2812.49 -1021.06 6.90842e-05 -0.0350233 3.23691e-05
161 2 0.806124 18.1512 15.953 -2812.36 -2812.5 -1021.14 3.58971e-05 -0.0237036 4.62808e-05
162 2 4.03062 18.1512 18.232 -2812.36 -2812.49 -1021.04 -0.000572646 -0.0246526 -0.000296787
163 2 0 16.755 20.511 -2804.07 -2804.22 -877.711 1.45235e-06 -0.0353442 -2.70803e-06
164 2 3.2245 16.755 22.79 -1940.75 -1940.89 5336.46 0.000281127 -0.0227959 0.000256242
165 2 1.61225 16.755 25.069 1639.46 1639.45 -62.5457 -4.10147e-05 -0.000684463 7.81332e-06
166 2 2.41837 18.1512 20.511 -2804.07 -2804.22 -877.707 -0.00043573 -0.0360365 -0.000104801
167 2 0.806124 18.1512 22.79 -1940.76 -1940.9 5336.46 -3.86157e-06 -0.0237807 -1.23825e-06
168 2 4.03062 18.1512 25.069 1639.47 1639.45 -62.5458 0.000122058 -0.00077199 3.55302e-06
169 2 0 19.5475 0 2596.05 2596.03 -99.025 -1.68267e-08 -0.00342769 -2.46069e-06
170 2 3.2245 19.5475 2.279 -1940.76 -1940.9 5336.46 2.82977e-06 -0.0237755 2.00587e-06
171 2 1.61225 19.5475 4.55799 -2804.09 -2804.23 -877.784 4.12325e-06 -0.0237405 1.37027e-05
172 2 2.41837 20.9437 0 2596.05 2596.03 -99.025 1.28943e-10 -0.00343602 2.94919e-10
173 2 0.806124 20.9437 2.279 -1940.76 -1940.9 5336.46 5.94538e-10 -0.0237777 1.0585e-10
174 2 4.03062 20.9437 4.55799 -2804.09 -2804.23 -877.784 -8.30969e-11 -0.023774 -2.05764e-10
175 2 0 19.5475 6.83699 -2812.33 -2812.48 -1020.96 3.21828e-07 -0.0353427 1.77626e-05
176 2 3.2245 19.5475 9.11598 -2812.36 -2812.5 -1021.13 -1.12459e-05 -0.0238595 3.36296e-06
177 2 1.61225 19.5475 11.395 -2812.36 -2812.5 -1021.13 7.29537e-06 -0.0236137 -1.28438e-06
178 2 2.41837 20.9437 6.83699 -2812.33 -2812.48 -1020.96 1.5828e-11 -0.0354308 -1.30581e-10
179 2 0.806124 20.9437 9.11598 -2812.36 -2812.5 -1021.14 5.02538e-10 -0.023834 -1.9785e-12
180 2 4.03062 20.9437 11.395 -2812.36 -2812.5 -1021.13 -1.10796e-10 -0.0234168 6.33119e-11
181 2 0 19.5475 13.674 -2812.33 -2812.49 -1021.06 -3.6975e-06 -0.0353921 1.33318e-05
182 2 3.2245 19.5475 15.953 -2812.36 -2812.5 -1021.14 -1.30294e-05 -0.0239012 -1.19248e-05
183 2 1.61225 19.5475 18.232 -2812.36 -2812.5 -1021.04 -3.95776e-05 -0.0240942 -1.57068e-05
184 2 2.41837 20.9437 13.674 -2812.34 -2812.49 -1021.06 0 -0.0350564 -1.43441e-10
185 2 0.806124 20.9437 15.953 -2812.36 -2812.5 -1021.14 6.29162e-10 -0.0237428 2.65119e-10
186 2 4.03062 20.9437 18.232 -2812.36 -2812.49 -1021.04 -9.49678e-11 -0.0241994 -1.74108e-10
187 2 0 19.5475 20.511 -2804.07 -2804.22 -877.712 -1.05304e-06 -0.035352 2.63954e-06
188 2 3.2245 19.5475 22.79 -1940.75 -1940.89 5336.46 0.000294061 -0.0222142 0.000140358
189 2 1.61225 19.5475 25.069 1639.46 1639.45 -62.5457 -9.64629e-06 -0.000649152 4.30333e-06
190 2 2.41837 20.9437 20.511 -2804.07 -2804.22 -877.706 1.17721e-10 -0.035995 3.2843e-10
191 2 0.806124 20.9437 22.79 -1940.76 -1940.9 5336.46 5.81678e-10 -0.0237819 1.40473e-10
192 2 4.03062 20.9437 25.069 1639.47 1639.45 -62.5458 -6.64048e-11 -0.000798663 -1.3802e-10
193 2 0 22.34 0 2596.05 2596.03 -99.025 1.673e-08 -0.00342769 2.46029e-06
194 2 3.2245 22.34 2.279 -1940.76 -1940.9 5336.46 -2.82969e-06 -0.0237755 -2.00556e-06
195 2 1.61225 22.34 4.55799 -2804.09 -2804.23 -877.784 -4.12332e-06 -0.0237405 -1.37029e-05
196 2 2.41837 23.7362 0 2596.05 2596.03 -99.025 -1.25637e-06 -0.00343642 3.98778e-06
197 2 0.806124 23.7362 2.279 -1940.76 -1940.9 5336.46 -1.04453e-06 -0.0237785 -1.19494e-06
198 2 4.03062 23.7362 4.55799 -2804.09 -2804.23 -877.784 -7.43725e-06 -0.0237658 -1.5949e-05
199 2 0 22.34 6.83699 -2812.33 -2812.48 -1020.96 -3.21529e-07 -0.0353427 -1.77628e-05
200 2 3.2245 22.34 9.11598 -2812.36 -2812.5 -1021.13 1.1246e-05 -0.0238595 -3.36248e-06
201 2 1.61225 22.34 11.395 -2812.36 -2812.5 -1021.13 -7.29555e-06 -0.0236137 1.28418e-06
202 2 2.41837 23.7362 6.83699 -2812.33 -2812.48 -1020.96 7.66117e-06 -0.0354133 -1.625e-05
203 2 0.806124 23.7362 9.11598 -2812.36 -2812.5 -1021.14 9.88476e-06 -0.0238318 1.79375e-06
204 2 4.03062 23.7362 11.395 -2812.36 -2812.5 -1021.13 -5.7699e-05 -0.0234094 -7.24267e-05
205 2 0 22.34 13.674 -2812.33 -2812.49 -1021.06 3.69767e-06 -0.0353921 -1.3332e-05
206 2 3.2245 22.34 15.953 -2812.36 -2812.5 -1021.14 1.30294e-05 -0.0239012 1.19247e-05
207 2 1.61225 22.34 18.232 -2812.36 -2812.5 -1021.04 3.95777e-05 -0.0240942 1.57076e-05
208 2 2.41837 23.7362 13.674 -2812.34 -2812.49 -1021.06 -6.90841e-05 -0.0350233 -3.23688e-05
209 2 0.806124 23.7362 15.953 -2812.36 -2812.5 -1021.14 -3.58975e-05 -0.0237036 -4.62814e-05
210 2 4.03062 23.7362 18.232 -2812.36 -2812.49 -1021.04 0.000572646 -0.0246526 0.000296787
211 2 0 22.34 20.511 -2804.07 -2804.22 -877.712 1.05315e-06 -0.035352 -2.63996e-06
212 2 3.2245 22.34 22.79 -1940.75 -1940.89 5336.46 -0.000294061 -0.0222142 -0.000140358
213 2 1.61225 22.34 25.069 1639.46 1639.45 -62.5457 9.64637e-06 -0.000649152 -4.30306e-06
214 2 2.41837 23.7362 20.511 -2804.07 -2804.22 -877.707 0.00043573 -0.0360365 0.000104802
215 2 0.806124 23.7362 22.79 -1940.76 -1940.9 5336.46 3.86147e-06 -0.0237807 1.23816e-06
216 2 4.03062 23.7362 25.069 1639.47 1639.45 -62.5458 -0.000122058 -0.000771989 -3.55319e-06
217 2 0 25.1325 0 2596.05 2596.03 -99.025 2.89466e-08 -0.00342768 4.24477e-06
218 2 3.2245 25.1325 2.279 -1940.76 -1940.9 5336.46 -5.583e-06 -0.0237794 -5.56813e-06
219 2 1.61225 25.1325 4.55799 -2804.09 -2804.23 -877.784 -9.36978e-06 -0.0237384 -3.31313e-05
220 2 2.41837 26.5287 0 2596.05 2596.03 -99.025 -1.30609e-06 -0.00343655 3.41463e-06
221 2 0.806124 26.5287 2.279 -1940.76 -1940.9 5336.46 -6.41694e-07 -0.0237802 -3.04395e-06
222 2 4.03062 26.5287 4.55799 -2804.09 -2804.23 -877.784 -8.97426e-06 -0.0237467 -2.70772e-05
223 2 0 25.1325 6.83699 -2812.33 -2812.48 -1020.96 -6.89524e-07 -0.0353446 -4.5244e-05
224 2 3.2245 25.1325 9.11598 -2812.36 -2812.5 -1021.14 3.88636e-05 -0.0238846 6.34529e-06
225 2 1.61225 25.1325 11.395 -2812.36 -2812.5 -1021.13 -2.39518e-07 -0.0237092 1.82669e-05
226 2 2.41837 26.5287 6.83699 -2812.33 -2812.48 -1020.96 9.3011e-06 -0.0353677 -2.37409e-05
227 2 0.806124 26.5287 9.11598 -2812.36 -2812.5 -1021.14 1.59914e-05 -0.0238221 1.82118e-06
228 2 4.03062 26.5287 11.395 -2812.36 -2812.5 -1021.13 -8.5978e-05 -0.0234653 -0.000118401
229 2 0 25.1325 13.674 -2812.34 -2812.49 -1021.06 9.93112e-06 -0.0353824 -2.86169e-06
230 2 3.2245 25.1325 15.953 -2812.36 -2812.5 -1021.14 1.31357e-05 -0.0238245 1.46569e-05
231 2 1.61225 25.1325 18.232 -2812.36 -2812.5 -1021.04 7.40222e-05 -0.0240087 2.95592e-05
232 2 2.41837 26.5287 13.674 -2812.34 -2812.49 -1021.06 -0.000134511 -0.0350002 -6.54796e-05
233 2 0.806124 26.5287 15.953 -2812.36 -2812.5 -1021.13 -9.79935e-05 -0.023618 -8.08725e-05
234 2 4.03062 26.5287 18.232 -2812.36 -2812.49 -1021.04 0.000747202 -0.0247474 0.00044515
235 2 0 25.1325 20.511 -2804.07 -2804.22 -877.711 -1.45193e-06 -0.0353442 2.70759e-06
236 2 3.2245 25.1325 22.79 -1940.75 -1940.89 5336.46 -0.000281127 -0.0227959 -0.000256242
237 2 1.61225 25.1325 25.069 1639.46 1639.45 -62.5457 4.10147e-05 -0.000684463 -7.81328e-06
238 2 2.41837 26.5287 20.511 -2804.07 -2804.22 -877.709 0.00047071 -0.0358606 0.0001466
239 2 0.806124 26.5287 22.79 -1940.76 -1940.9 5336.46 -7.63794e-06 -0.0237748 -2.25881e-06
240 2 4.03062 26.5287 25.069 1639.47 1639.45 -62.5457 -0.000187479 -0.000689204 -3.12945e-05
241 2 0 27.925 0 2596.05 2596.03 -99.025 -3.3176e-09 -0.00342773 4.50387e-07
242 2 3.2245 27.925 2.279 -1940.76 -1940.9 5336.46 -1.5522e-06 -0.0237844 -6.26006e-06
243 2 1.61225 27.925 4.55799 -2804.09 -2804.23 -877.784 -7.28892e-06 -0.0237417 -3.0485e-05
244 2 2.41837 29.3212 0 2596.05 2596.03 -99.025 -1.07109e-07 -0.00343457 -7.23176e-07
245 2 0.806124 29.3212 2.279 -1940.76 -1940.9 5336.46 1.1539e-06 -0.0237813 -3.94711e-06
246 2 4.03062 29.3212 4.55799 -2804.09 -2804.23 -877.784 -3.41793e-06 -0.0237335 -2.77692e-05
247 2 0 27.925 6.83699 -2812.33 -2812.48 -1020.96 -3.1521e-07 -0.0353472 -4.84301e-05
248 2 3.2245 27.925 9.11598 -2812.36 -2812.5 -1021.14 5.64555e-05 -0.0238835 3.02699e-05
249 2 1.61225 27.925 11.395 -2812.36 -2812.5 -1021.14 3.3765e-05 -0.0238181 4.22567e-05
250 2 2.41837 29.3212 6.83699 -2812.33 -2812.48 -1020.96 1.58327e-07 -0.0353191 -2.09027e-05
251 2 0.806124 29.3212 9.11598 -2812.36 -2812.5 -1021.14 1.32607e-05 -0.0238029 -4.96511e-06
252 2 4.03062 29.3212 11.395 -2812.36 -2812.5 -1021.13 -3.26967e-05 -0.0236622 -6.9008e-05
253 2 0 27.925 13.674 -2812.34 -2812.49 -1021.06 8.91816e-06 -0.0353629 5.26863e-05
254 2 3.2245 27.925 15.953 -2812.36 -2812.5 -1021.14 -6.29628e-06 -0.0237898 1.32372e-05
255 2 1.61225 27.925 18.232 -2812.36 -2812.5 -1021.04 -1.11378e-06 -0.023855 5.20891e-06
256 2 2.41837 29.3212 13.674 -2812.34 -2812.49 -1021.06 -0.000106289 -0.0351371 -5.70337e-05
257 2 0.806124 29.3212 15.953 -2812.36 -2812.5 -1021.13 -0.00011907 -0.023611 -4.46915e-05
258 2 4.03062 29.3212 18.232 -2812.36 -2812.5 -1021.04 0.000281249 -0.0241032 0.000194671
259 2 0 27.925 20.511 -2804.07 -2804.22 -877.71 -7.7597e-06 -0.0353383 -2.80158e-06
260 2 3.2245 27.925 22.79 -1940.76 -1940.89 5336.46 0.000309717 -0.0236209 -6.446e-05
261 2 1.61225 27.925 25.069 1639.46 1639.45 -62.5457 5.93739e-05 -0.000730747 -2.88417e-06
262 2 2.41837 29.3212 20.511 -2804.07 -2804.22 -877.71 0.000182393 -0.0355414 8.49019e-05
263 2 0.806124 29.3212 22.79 -1940.76 -1940.9 5336.46 2.07133e-05 -0.0237949 5.45736e-06
264 2 4.03062 29.3212 25.069 1639.46 1639.45 -62.5456 -3.52071e-05 -0.000671987 -4.37682e-05
265 2 0 30.7174 0 2596.05 2596.03 -99.025 -4.37175e-08 -0.00342787 -4.49531e-06
266 2 3.2245 30.7174 2.279 -1940.76 -1940.9 5336.46 5.59997e-06 -0.0237861 -2.95198e-06
267 2 1.61225 30.7174 4.55799 -2804.09 -2804.23 -877.784 6.11728e-07 -0.0237554 -9.12459e-06
268 2 2.41837 32.1137 0 2596.05 2596.03 -99.025 6.30867e-07 -0.00343047 -3.46009e-06
269 2 0.806124 32.1137 2.279 -1940.76 -1940.9 5336.46 2.27635e-06 -0.0237803 -4.01947e-06
270 2 4.03062 32.1137 4.55799 -2804.09 -2804.23 -877.784 5.14377e-06 -0.023742 -1.69905e-05
271 2 0 30.7174 6.83699 -2812.33 -2812.48 -1020.96 4.573e-07 -0.0353486 -2.31156e-05
272 2 3.2245 30.7174 9.11598 -2812.36 -2812.5 -1021.14 3.91369e-05 -0.0238379 3.30153e-05
273 2 1.61225 30.7174 11.395 -2812.36 -2812.5 -1021.14 5.07826e-05 -0.0238561 3.67167e-05
274 2 2.41837 32.1137 6.83699 -2812.33 -2812.48 -1020.96 -1.12674e-05 -0.0353013 -1.08506e-05
275 2 0.806124 32.1137 9.11598 -2812.36 -2812.5 -1021.14 1.31088e-06 -0.0237795 -1.43851e-05
276 2 4.03062 32.1137 11.395 -2812.36 -2812.5 -1021.14 3.85963e-05 -0.0238286 2.23603e-05
277 2 0 30.7174 13.674 -2812.34 -2812.49 -1021.06 1.93804e-06 -0.0353478 6.81298e-05
278 2 3.2245 30.7174 15.953 -2812.36 -2812.5 -1021.14 -0.00011226 -0.0236625 -5.1909e-05
279 2 1.61225 30.7174 18.232 -2812.36 -2812.5 -1021.04 -0.000168409 -0.0236573 -4.24701e-05
280 2 2.41837 32.1137 13.674 -2812.34 -2812.49 -1021.06 1.41859e-05 -0.0353471 -5.97404e-06
281 2 0.806124 32.1137 15.953 -2812.36 -2812.5 -1021.14 -4.1752e-05 -0.0237151 2.44336e-05
282 2 4.03062 32.1137 18.232 -2812.36 -2812.5 -1021.04 3.75013e-05 -0.0238385 4.83486e-05
283 2 0 30.7174 20.511 -2804.07 -2804.22 -877.709 5.44516e-07 -0.0353459 -4.93017e-05
284 2 3.2245 30.7174 22.79 -1940.76 -1940.9 5336.46 0.000200737 -0.0238384 3.73072e-05
285 2 1.61225 30.7174 25.069 1639.46 1639.45 -62.5457 3.25385e-05 -0.000757033 2.52449e-06
286 2 2.41837 32.1137 20.511 -2804.07 -2804.22 -877.71 -3.39863e-05 -0.0353698 2.83394e-05
287 2 0.806124 32.1137 22.79 -1940.76 -1940.9 5336.46 -1.34876e-05 -0.0237946 -4.04617e-06
288 2 4.03062 32.1137 25.069 1639.46 1639.45 -62.5457 5.79797e-05 -0.00072878 -1.21766e-05
289 2 0 33.5099 0 2596.05 2596.03 -99.025 -2.47118e-08 -0.00342803 -4.98898e-06
290 2 3.2245 33.5099 2.279 -1940.76 -1940.9 5336.46 7.42821e-06 -0.0237823 -3.43765e-07
291 2 1.61225 33.5099 4.55799 -2804.09 -2804.23 -877.784 7.04532e-06 -0.0237716 6.2442e-06
292 2 2.41837 34.9062 0 2596.05 2596.03 -99.025 -4.6555e-07 -0.0034267 -2.1986e-06
293 2 0.806124 34.9062 2.279 -1940.76 -1940.9 5336.46 1.35375e-06 -0.023778 -5.39634e-06
294 2 4.03062 34.9062 4.55799 -2804.09 -2804.23 -877.784 9.39293e-06 -0.023763 -4.58658e-06
295 2 0 33.5099 6.83699 -2812.33 -2812.48 -1020.96 6.05976e-07 -0.0353478 8.32955e-06
296 2 3.2245 33.5099 9.11598 -2812.36 -2812.5 -1021.14 2.07993e-06 -0.0237858 1.11524e-05
297 2 1.61225 33.5099 11.395 -2812.36 -2812.5 -1021.14 3.00462e-05 -0.0238266 2.91573e-06
298 2 2.41837 34.9062 6.83699 -2812.33 -2812.48 -1020.96 -9.55639e-06 -0.0353218 6.57122e-07
299 2 0.806124 34.9062 9.11598 -2812.36 -2812.5 -1021.14 -8.51468e-06 -0.0237666 -1.13984e-05
300 2 4.03062 34.9062 11.395 -2812.36 -2812.5 -1021.14 3.49075e-05 -0.0238337 3.60407e-05
301 2 0 33.5099 13.674 -2812.34 -2812.49 -1021.06 -1.62186e-06 -0.0353441 2.40661e-05
302 2 3.2245 33.5099 15.953 -2812.36 -2812.5 -1021.14 -9.44228e-05 -0.0236708 -8.0832e-05
303 2 1.61225 33.5099 18.232 -2812.36 -2812.49 -1021.04 -0.000136445 -0.0236574 -2.02424e-05
304 2 2.41837 34.9062 13.674 -2812.34 -2812.49 -1021.06 6.13396e-05 -0.0354092 1.05623e-05
305 2 0.806124 34.9062 15.953 -2812.36 -2812.5 -1021.14 2.10931e-05 -0.0237841 2.79851e-05
306 2 4.03062 34.9062 18.232 -2812.36 -2812.5 -1021.04 -0.000110666 -0.023706 -6.05095e-05
307 2 0 33.5099 20.511 -2804.07 -2804.22 -877.708 6.44583e-06 -0.0353506 -1.98701e-05
308 2 3.2245 33.5099 22.79 -1940.76 -1940.9 5336.46 2.24054e-05 -0.0237988 1.85701e-05
309 2 1.61225 33.5099 25.069 1639.46 1639.45 -62.5457 -8.30378e-06 -0.000757163 1.75823e-06
310 2 2.41837 34.9062 20.511 -2804.07 -2804.22 -877.709 -0.000121048 -0.0352891 -1.06608e-05
311 2 0.806124 34.9062 22.79 -1940.76 -1940.9 5336.46 -4.03916e-05 -0.0237716 -5.64397e-06
312 2 4.03062 34.9062 25.069 1639.46 1639.45 -62.5457 1.89474e-05 -0.000752283 5.79389e-06
313 2 0 36.3024 0 2596.05 2596.03 -99.025 4.88346e-08 -0.0034281 -1.07268e-06
314 2 3.2245 36.3024 2.279 -1940.76 -1940.9 5336.46 2.31992e-06 -0.0237756 -2.0549e-06
315 2 1.61225 36.3024 4.55799 -2804.09 -2804.23 -877.784 6.39591e-06 -0.0237779 1.26358e-06
316 2 2.41837 37.6987 0 2596.05 2596.03 -99.025 -2.1838e-06 -0.00342549 8.92051e-07
317 2 0.806124 37.6987 2.279 -1940.76 -1940.9 5336.46 -6.08466e-07 -0.0237756 -7.16165e-06
318 2 4.03062 37.6987 4.55799 -2804.09 -2804.23 -877.784 5.45468e-06 -0.0237724 -1.45963e-06
319 2 0 36.3024 6.83699 -2812.33 -2812.48 -1020.96 1.40756e-07 -0.0353465 1.69941e-05
320 2 3.2245 36.3024 9.11598 -2812.36 -2812.5 -1021.14 -1.86071e-05 -0.0237624 -8.30969e-06
321 2 1.61225 36.3024 11.395 -2812.36 -2812.5 -1021.14 -4.34636e-06 -0.0237799 -2.40984e-05
322 2 2.41837 37.6987 6.83699 -2812.33 -2812.48 -1020.96 2.4004e-06 -0.0353476 5.32151e-06
323 2 0.806124 37.6987 9.11598 -2812.36 -2812.5 -1021.14 -4.72061e-06 -0.0237704 2.7083e-06
324 2 4.03062 37.6987 11.395 -2812.36 -2812.5 -1021.14 -8.66528e-07 -0.0237853 1.92959e-07
325 2 0 36.3024 13.674 -2812.34 -2812.49 -1021.06 -1.10256e-06 -0.0353458 -2.56281e-05
326 2 3.2245 36.3024 15.953 -2812.36 -2812.5 -1021.14 3.56988e-05 -0.0237865 -8.56415e-06
327 2 1.61225 36.3024 18.232 -2812.36 -2812.5 -1021.04 1.67492e-05 -0.0237682 2.34278e-05
328 2 2.41837 37.6987 13.674 -2812.34 -2812.49 -1021.06 1.98483e-05 -0.0353665 -1.04124e-05
329 2 0.806124 37.6987 15.953 -2812.36 -2812.5 -1021.14 1.9093e-05 -0.023788 -3.79848e-06
330 2 4.03062 37.6987 18.232 -2812.36 -2812.49 -1021.04 -1.86679e-05 -0.0237541 -2.54918e-05
331 2 0 36.3024 20.511 -2804.07 -2804.22 -877.709 1.45831e-06 -0.035348 3.22986e-05
332 2 3.2245 36.3024 22.79 -1940.76 -1940.9 5336.46 -4.0455e-05 -0.0237747 3.74911e-06
333 2 1.61225 36.3024 25.069 1639.46 1639.45 -62.5457 -1.3464e-05 -0.000747099 -1.34129e-06
334 2 2.41837 37.6987 20.511 -2804.07 -2804.22 -877.709 -3.71185e-06 -0.0353356 8.01345e-06