       N       E                     dE             d eps       ncg     rms          rms(c)
DAV:   1     0.381114429657E+03    0.38111E+03   -0.32255E+04 28116   0.168E+03
DAV:   2    -0.289367059115E+02   -0.41005E+03   -0.39975E+03 34464   0.341E+02
DAV:   3    -0.387334907716E+02   -0.97968E+01   -0.96397E+01 31560   0.524E+01
DAV:   4    -0.388490693406E+02   -0.11558E+00   -0.11537E+00 31572   0.575E+00
DAV:   5    -0.388507075873E+02   -0.16382E-02   -0.16380E-02 33204   0.647E-01    0.269E+01
RMM:   6    -0.367522415081E+02    0.20985E+01   -0.49341E+00 28080   0.125E+01    0.142E+01
RMM:   7    -0.365778917153E+02    0.17435E+00   -0.13979E+00 28080   0.621E+00    0.462E+00
RMM:   8    -0.365484424787E+02    0.29449E-01   -0.13530E-01 28082   0.208E+00    0.173E+00
RMM:   9    -0.365460338999E+02    0.24086E-02   -0.70805E-03 28800   0.398E-01    0.487E-02
RMM:  10    -0.365460563369E+02   -0.22437E-04   -0.20329E-04 28318   0.437E-02    0.288E-02
RMM:  11    -0.365460613638E+02   -0.50269E-05   -0.78115E-06 22204   0.130E-02    0.537E-03
RMM:  12    -0.365460614891E+02   -0.12534E-06   -0.20167E-06 15340   0.768E-03
   1 F= -.36546061E+02 E0= -.36545275E+02  d E =-.365461E+02
       N       E                     dE             d eps       ncg     rms          rms(c)
DAV:   1    -0.365653445875E+02   -0.19283E-01   -0.40494E-01 29280   0.380E+00    0.660E-01
RMM:   2    -0.365551005762E+02    0.10244E-01   -0.19938E-02 28080   0.797E-01    0.254E-01
RMM:   3    -0.365541733909E+02    0.92719E-03   -0.33176E-03 28266   0.281E-01    0.143E-01
RMM:   4    -0.365541579206E+02    0.15470E-04   -0.29132E-04 28585   0.781E-02    0.150E-02
RMM:   5    -0.365541570387E+02    0.88185E-06   -0.37352E-05 28423   0.281E-02    0.837E-03
RMM:   6    -0.365541568006E+02    0.23808E-06   -0.17283E-06 15779   0.669E-03
   2 F= -.36554157E+02 E0= -.36553385E+02  d E =-.809531E-02
       N       E                     dE             d eps       ncg     rms          rms(c)
DAV:   1    -0.366191972803E+02   -0.65040E-01   -0.21079E+00 28140   0.868E+00    0.153E+00
RMM:   2    -0.365666651181E+02    0.52532E-01   -0.10159E-01 28080   0.180E+00    0.580E-01
RMM:   3    -0.365617029919E+02    0.49621E-02   -0.17655E-02 28253   0.653E-01    0.316E-01
RMM:   4    -0.365615953678E+02    0.10762E-03   -0.15792E-03 28590   0.183E-01    0.355E-02
RMM:   5    -0.365615848927E+02    0.10475E-04   -0.18109E-04 28401   0.633E-02    0.214E-02
RMM:   6    -0.365615854067E+02   -0.51401E-06   -0.97102E-06 27698   0.149E-02
   3 F= -.36561585E+02 E0= -.36560889E+02  d E =-.742861E-02
       N       E                     dE             d eps       ncg     rms          rms(c)
DAV:   1    -0.365617001302E+02   -0.11524E-03   -0.38967E-03 30888   0.373E-01    0.649E-02
RMM:   2    -0.365616030080E+02    0.97122E-04   -0.18239E-04 28080   0.765E-02    0.265E-02
RMM:   3    -0.365615925233E+02    0.10485E-04   -0.31328E-05 28240   0.275E-02    0.145E-02
RMM:   4    -0.365615909108E+02    0.16124E-05   -0.25662E-06 16289   0.761E-03    0.149E-03
RMM:   5    -0.365615909126E+02   -0.17426E-08   -0.52657E-07 14279   0.367E-03
   4 F= -.36561591E+02 E0= -.36560890E+02  d E =-.550584E-05
