 vasp.5.4.4.18Apr17-6-g9f103f2a35 (build Nov 06 2023 00:46:14) complex          
  
 executed on             LinuxIFC date 2025.07.20  18:10:02
 running on   48 total cores
 distrk:  each k-point on   48 cores,    1 groups
 distr:  one band on NCORES_PER_BAND=   8 cores,    6 groups


--------------------------------------------------------------------------------------------------------


 INCAR:
 POTCAR:    PAW_PBE Pt 04Feb2005                  
 POTCAR:    PAW_PBE Pt 04Feb2005                  
  local pseudopotential read in
  partial core-charges read in
  partial kinetic energy density read in
  atomic valenz-charges read in
  non local Contribution for L=           2  read in
    real space projection operators read in
  non local Contribution for L=           2  read in
    real space projection operators read in
  non local Contribution for L=           0  read in
    real space projection operators read in
  non local Contribution for L=           0  read in
    real space projection operators read in
  non local Contribution for L=           1  read in
    real space projection operators read in
  non local Contribution for L=           1  read in
    real space projection operators read in
    PAW grid and wavefunctions read in
 
   number of l-projection  operators is LMAX  =           6
   number of lm-projection operators is LMMAX =          18
 
  PAW_PBE Pt 04Feb2005                  :
 energy of atom  1       EATOM= -729.1176
 kinetic energy error for atom=    0.0021 (will be added to EATOM!!)
 
 
 POSCAR: Pt                                      
  positions in cartesian coordinates
  No initial velocities read in
 exchange correlation table for  LEXCH =        8
   RHO(1)=    0.500       N(1)  =     2000
   RHO(2)=  100.500       N(2)  =     4000

 VTST: version 3.2, (02/03/18)

 CHAIN: initializing optimizer
 
 OPT: Using VASP QUASI-newton optimizer
 CHAIN: Read ICHAIN            0
 
 POSCAR: Pt                                      
  positions in cartesian coordinates
  No initial velocities read in
 


--------------------------------------------------------------------------------------------------------


 ion  position               nearest neighbor table
   1  0.000  0.000  0.000-   2 2.81   3 2.81   5 2.82   6 2.82   5 2.82   6 2.82   4 2.82   4 2.82
                             4 2.82   4 2.82
   2  0.667  0.000  0.333-   1 2.81   3 2.81   4 2.82   4 2.82   5 2.82   5 2.82   5 2.82   5 2.82
                             6 2.82   6 2.82
   3  0.333  0.000  0.667-   1 2.81   2 2.81   4 2.82   4 2.82   6 2.82   6 2.82   6 2.82   6 2.82
                             5 2.82   5 2.82
   4  0.500  0.500  0.000-   5 2.81   6 2.81   2 2.82   3 2.82   2 2.82   3 2.82   1 2.82   1 2.82
                             1 2.82   1 2.82
   5  0.167  0.500  0.333-   4 2.81   6 2.81   1 2.82   1 2.82   2 2.82   2 2.82   2 2.82   2 2.82
                             3 2.82   3 2.82
   6  0.833  0.500  0.667-   4 2.81   5 2.81   1 2.82   1 2.82   3 2.82   3 2.82   3 2.82   3 2.82
                             2 2.82   2 2.82
 
  LATTYP: Found a simple orthorhombic cell.
 ALAT       =     2.8613906184
 B/A-ratio  =     1.6980890266
 C/A-ratio  =     2.4014605297
  
  Lattice vectors:
  
 A1 = (   0.0000000000,  -2.8613906184,   0.0000000000)
 A2 = (  -4.8588960100,   0.0000000000,   0.0000000000)
 A3 = (   0.0000000000,   0.0000000000,  -6.8715166300)


Analysis of symmetry for initial positions (statically):
=====================================================================
 Subroutine PRICEL returns following result:
 
  LATTYP: Found a body centered orthorhombic cell.
 ALAT       =     2.8052849739
 B/A-ratio  =     1.0199999804
 C/A-ratio  =     1.4142135345
  
  Lattice vectors:
  
 A1 = (  -2.4294480536,  -1.4306953092,   0.0000000687)
 A2 = (  -0.8098160179,   1.4306953092,  -2.2905055204)
 A3 = (   2.4294480536,  -1.4306953092,  -0.0000000687)
 
   6 primitive cells build up your supercell.
 

 Routine SETGRP: Setting up the symmetry group for a 
 simple orthorhombic supercell.


 Subroutine GETGRP returns: Found  4 space group operations
 (whereof  4 operations were pure point group operations)
 out of a pool of  8 trial point group operations.


The static configuration has the point symmetry C_2h.


Analysis of symmetry for dynamics (positions and initial velocities):
=====================================================================
 Subroutine PRICEL returns following result:
 
  LATTYP: Found a body centered orthorhombic cell.
 ALAT       =     2.8052849739
 B/A-ratio  =     1.0199999804
 C/A-ratio  =     1.4142135345
  
  Lattice vectors:
  
 A1 = (  -2.4294480536,  -1.4306953092,   0.0000000687)
 A2 = (  -0.8098160179,   1.4306953092,  -2.2905055204)
 A3 = (   2.4294480536,  -1.4306953092,  -0.0000000687)
 
   6 primitive cells build up your supercell.
 

 Routine SETGRP: Setting up the symmetry group for a 
 simple orthorhombic supercell.


 Subroutine GETGRP returns: Found  4 space group operations
 (whereof  4 operations were pure point group operations)
 out of a pool of  8 trial point group operations.


The dynamic configuration has the point symmetry C_2h.


 Subroutine INISYM returns: Found  4 space group operations
 (whereof  4 operations are pure point group operations),
 and found     6 'primitive' translations

 
 
 KPOINTS: K-Spacing Value to Generate K-Mesh: 0.02

Automatic generation of k-mesh.
Space group operators:
 irot       det(A)        alpha          n_x          n_y          n_z        tau_x        tau_y        tau_z
    1     1.000000     0.000001     1.000000     0.000000     0.000000     0.000000     0.000000     0.000000
    2    -1.000000     0.000001     1.000000     0.000000     0.000000     0.000000     0.000000     0.000000
    3     1.000000   179.999999     0.000000     1.000000     0.000000     0.000000     0.000000     0.000000
    4    -1.000000   179.999999     0.000000     1.000000     0.000000     0.000000     0.000000     0.000000
 
 Subroutine IBZKPT returns following result:
 ===========================================
 
 Found    390 irreducible k-points:
 
 Following reciprocal coordinates:
            Coordinates               Weight
  0.000000  0.000000  0.000000      1.000000
  0.090909  0.000000  0.000000      2.000000
  0.181818  0.000000  0.000000      2.000000
  0.272727  0.000000  0.000000      2.000000
  0.363636  0.000000  0.000000      2.000000
  0.454545  0.000000  0.000000      2.000000
  0.000000  0.055556  0.000000      2.000000
  0.090909  0.055556  0.000000      4.000000
  0.181818  0.055556  0.000000      4.000000
  0.272727  0.055556  0.000000      4.000000
  0.363636  0.055556  0.000000      4.000000
  0.454545  0.055556  0.000000      4.000000
  0.000000  0.111111  0.000000      2.000000
  0.090909  0.111111  0.000000      4.000000
  0.181818  0.111111  0.000000      4.000000
  0.272727  0.111111  0.000000      4.000000
  0.363636  0.111111  0.000000      4.000000
  0.454545  0.111111  0.000000      4.000000
  0.000000  0.166667  0.000000      2.000000
  0.090909  0.166667  0.000000      4.000000
  0.181818  0.166667  0.000000      4.000000
  0.272727  0.166667  0.000000      4.000000
  0.363636  0.166667  0.000000      4.000000
  0.454545  0.166667  0.000000      4.000000
  0.000000  0.222222  0.000000      2.000000
  0.090909  0.222222  0.000000      4.000000
  0.181818  0.222222  0.000000      4.000000
  0.272727  0.222222  0.000000      4.000000
  0.363636  0.222222  0.000000      4.000000
  0.454545  0.222222  0.000000      4.000000
  0.000000  0.277778  0.000000      2.000000
  0.090909  0.277778  0.000000      4.000000
  0.181818  0.277778  0.000000      4.000000
  0.272727  0.277778  0.000000      4.000000
  0.363636  0.277778  0.000000      4.000000
  0.454545  0.277778  0.000000      4.000000
  0.000000  0.333333  0.000000      2.000000
  0.090909  0.333333  0.000000      4.000000
  0.181818  0.333333  0.000000      4.000000
  0.272727  0.333333  0.000000      4.000000
  0.363636  0.333333  0.000000      4.000000
  0.454545  0.333333  0.000000      4.000000
  0.000000  0.388889  0.000000      2.000000
  0.090909  0.388889  0.000000      4.000000
  0.181818  0.388889  0.000000      4.000000
  0.272727  0.388889  0.000000      4.000000
  0.363636  0.388889  0.000000      4.000000
  0.454545  0.388889  0.000000      4.000000
  0.000000  0.444444  0.000000      2.000000
  0.090909  0.444444  0.000000      4.000000
  0.181818  0.444444  0.000000      4.000000
  0.272727  0.444444  0.000000      4.000000
  0.363636  0.444444  0.000000      4.000000
  0.454545  0.444444  0.000000      4.000000
  0.000000  0.500000  0.000000      1.000000
  0.090909  0.500000  0.000000      2.000000
  0.181818  0.500000  0.000000      2.000000
  0.272727  0.500000  0.000000      2.000000
  0.363636  0.500000  0.000000      2.000000
  0.454545  0.500000  0.000000      2.000000
  0.000000  0.000000  0.142857      2.000000
  0.090909  0.000000  0.142857      2.000000
  0.181818  0.000000  0.142857      2.000000
  0.272727  0.000000  0.142857      2.000000
  0.363636  0.000000  0.142857      2.000000
  0.454545  0.000000  0.142857      2.000000
 -0.454545  0.000000  0.142857      2.000000
 -0.363636  0.000000  0.142857      2.000000
 -0.272727  0.000000  0.142857      2.000000
 -0.181818  0.000000  0.142857      2.000000
 -0.090909  0.000000  0.142857      2.000000
  0.000000  0.055556  0.142857      4.000000
  0.090909  0.055556  0.142857      4.000000
  0.181818  0.055556  0.142857      4.000000
  0.272727  0.055556  0.142857      4.000000
  0.363636  0.055556  0.142857      4.000000
  0.454545  0.055556  0.142857      4.000000
 -0.454545  0.055556  0.142857      4.000000
 -0.363636  0.055556  0.142857      4.000000
 -0.272727  0.055556  0.142857      4.000000
 -0.181818  0.055556  0.142857      4.000000
 -0.090909  0.055556  0.142857      4.000000
  0.000000  0.111111  0.142857      4.000000
  0.090909  0.111111  0.142857      4.000000
  0.181818  0.111111  0.142857      4.000000
  0.272727  0.111111  0.142857      4.000000
  0.363636  0.111111  0.142857      4.000000
  0.454545  0.111111  0.142857      4.000000
 -0.454545  0.111111  0.142857      4.000000
 -0.363636  0.111111  0.142857      4.000000
 -0.272727  0.111111  0.142857      4.000000
 -0.181818  0.111111  0.142857      4.000000
 -0.090909  0.111111  0.142857      4.000000
  0.000000  0.166667  0.142857      4.000000
  0.090909  0.166667  0.142857      4.000000
  0.181818  0.166667  0.142857      4.000000
  0.272727  0.166667  0.142857      4.000000
  0.363636  0.166667  0.142857      4.000000
  0.454545  0.166667  0.142857      4.000000
 -0.454545  0.166667  0.142857      4.000000
 -0.363636  0.166667  0.142857      4.000000
 -0.272727  0.166667  0.142857      4.000000
 -0.181818  0.166667  0.142857      4.000000
 -0.090909  0.166667  0.142857      4.000000
  0.000000  0.222222  0.142857      4.000000
  0.090909  0.222222  0.142857      4.000000
  0.181818  0.222222  0.142857      4.000000
  0.272727  0.222222  0.142857      4.000000
  0.363636  0.222222  0.142857      4.000000
  0.454545  0.222222  0.142857      4.000000
 -0.454545  0.222222  0.142857      4.000000
 -0.363636  0.222222  0.142857      4.000000
 -0.272727  0.222222  0.142857      4.000000
 -0.181818  0.222222  0.142857      4.000000
 -0.090909  0.222222  0.142857      4.000000
  0.000000  0.277778  0.142857      4.000000
  0.090909  0.277778  0.142857      4.000000
  0.181818  0.277778  0.142857      4.000000
  0.272727  0.277778  0.142857      4.000000
  0.363636  0.277778  0.142857      4.000000
  0.454545  0.277778  0.142857      4.000000
 -0.454545  0.277778  0.142857      4.000000
 -0.363636  0.277778  0.142857      4.000000
 -0.272727  0.277778  0.142857      4.000000
 -0.181818  0.277778  0.142857      4.000000
 -0.090909  0.277778  0.142857      4.000000
  0.000000  0.333333  0.142857      4.000000
  0.090909  0.333333  0.142857      4.000000
  0.181818  0.333333  0.142857      4.000000
  0.272727  0.333333  0.142857      4.000000
  0.363636  0.333333  0.142857      4.000000
  0.454545  0.333333  0.142857      4.000000
 -0.454545  0.333333  0.142857      4.000000
 -0.363636  0.333333  0.142857      4.000000
 -0.272727  0.333333  0.142857      4.000000
 -0.181818  0.333333  0.142857      4.000000
 -0.090909  0.333333  0.142857      4.000000
  0.000000  0.388889  0.142857      4.000000
  0.090909  0.388889  0.142857      4.000000
  0.181818  0.388889  0.142857      4.000000
  0.272727  0.388889  0.142857      4.000000
  0.363636  0.388889  0.142857      4.000000
  0.454545  0.388889  0.142857      4.000000
 -0.454545  0.388889  0.142857      4.000000
 -0.363636  0.388889  0.142857      4.000000
 -0.272727  0.388889  0.142857      4.000000
 -0.181818  0.388889  0.142857      4.000000
 -0.090909  0.388889  0.142857      4.000000
  0.000000  0.444444  0.142857      4.000000
  0.090909  0.444444  0.142857      4.000000
  0.181818  0.444444  0.142857      4.000000
  0.272727  0.444444  0.142857      4.000000
  0.363636  0.444444  0.142857      4.000000
  0.454545  0.444444  0.142857      4.000000
 -0.454545  0.444444  0.142857      4.000000
 -0.363636  0.444444  0.142857      4.000000
 -0.272727  0.444444  0.142857      4.000000
 -0.181818  0.444444  0.142857      4.000000
 -0.090909  0.444444  0.142857      4.000000
  0.000000  0.500000  0.142857      2.000000
  0.090909  0.500000  0.142857      2.000000
  0.181818  0.500000  0.142857      2.000000
  0.272727  0.500000  0.142857      2.000000
  0.363636  0.500000  0.142857      2.000000
  0.454545  0.500000  0.142857      2.000000
 -0.454545  0.500000  0.142857      2.000000
 -0.363636  0.500000  0.142857      2.000000
 -0.272727  0.500000  0.142857      2.000000
 -0.181818  0.500000  0.142857      2.000000
 -0.090909  0.500000  0.142857      2.000000
  0.000000  0.000000  0.285714      2.000000
  0.090909  0.000000  0.285714      2.000000
  0.181818  0.000000  0.285714      2.000000
  0.272727  0.000000  0.285714      2.000000
  0.363636  0.000000  0.285714      2.000000
  0.454545  0.000000  0.285714      2.000000
 -0.454545  0.000000  0.285714      2.000000
 -0.363636  0.000000  0.285714      2.000000
 -0.272727  0.000000  0.285714      2.000000
 -0.181818  0.000000  0.285714      2.000000
 -0.090909  0.000000  0.285714      2.000000
  0.000000  0.055556  0.285714      4.000000
  0.090909  0.055556  0.285714      4.000000
  0.181818  0.055556  0.285714      4.000000
  0.272727  0.055556  0.285714      4.000000
  0.363636  0.055556  0.285714      4.000000
  0.454545  0.055556  0.285714      4.000000
 -0.454545  0.055556  0.285714      4.000000
 -0.363636  0.055556  0.285714      4.000000
 -0.272727  0.055556  0.285714      4.000000
 -0.181818  0.055556  0.285714      4.000000
 -0.090909  0.055556  0.285714      4.000000
  0.000000  0.111111  0.285714      4.000000
  0.090909  0.111111  0.285714      4.000000
  0.181818  0.111111  0.285714      4.000000
  0.272727  0.111111  0.285714      4.000000
  0.363636  0.111111  0.285714      4.000000
  0.454545  0.111111  0.285714      4.000000
 -0.454545  0.111111  0.285714      4.000000
 -0.363636  0.111111  0.285714      4.000000
 -0.272727  0.111111  0.285714      4.000000
 -0.181818  0.111111  0.285714      4.000000
 -0.090909  0.111111  0.285714      4.000000
  0.000000  0.166667  0.285714      4.000000
  0.090909  0.166667  0.285714      4.000000
  0.181818  0.166667  0.285714      4.000000
  0.272727  0.166667  0.285714      4.000000
  0.363636  0.166667  0.285714      4.000000
  0.454545  0.166667  0.285714      4.000000
 -0.454545  0.166667  0.285714      4.000000
 -0.363636  0.166667  0.285714      4.000000
 -0.272727  0.166667  0.285714      4.000000
 -0.181818  0.166667  0.285714      4.000000
 -0.090909  0.166667  0.285714      4.000000
  0.000000  0.222222  0.285714      4.000000
  0.090909  0.222222  0.285714      4.000000
  0.181818  0.222222  0.285714      4.000000
  0.272727  0.222222  0.285714      4.000000
  0.363636  0.222222  0.285714      4.000000
  0.454545  0.222222  0.285714      4.000000
 -0.454545  0.222222  0.285714      4.000000
 -0.363636  0.222222  0.285714      4.000000
 -0.272727  0.222222  0.285714      4.000000
 -0.181818  0.222222  0.285714      4.000000
 -0.090909  0.222222  0.285714      4.000000
  0.000000  0.277778  0.285714      4.000000
  0.090909  0.277778  0.285714      4.000000
  0.181818  0.277778  0.285714      4.000000
  0.272727  0.277778  0.285714      4.000000
  0.363636  0.277778  0.285714      4.000000
  0.454545  0.277778  0.285714      4.000000
 -0.454545  0.277778  0.285714      4.000000
 -0.363636  0.277778  0.285714      4.000000
 -0.272727  0.277778  0.285714      4.000000
 -0.181818  0.277778  0.285714      4.000000
 -0.090909  0.277778  0.285714      4.000000
  0.000000  0.333333  0.285714      4.000000
  0.090909  0.333333  0.285714      4.000000
  0.181818  0.333333  0.285714      4.000000
  0.272727  0.333333  0.285714      4.000000
  0.363636  0.333333  0.285714      4.000000
  0.454545  0.333333  0.285714      4.000000
 -0.454545  0.333333  0.285714      4.000000
 -0.363636  0.333333  0.285714      4.000000
 -0.272727  0.333333  0.285714      4.000000
 -0.181818  0.333333  0.285714      4.000000
 -0.090909  0.333333  0.285714      4.000000
  0.000000  0.388889  0.285714      4.000000
  0.090909  0.388889  0.285714      4.000000
  0.181818  0.388889  0.285714      4.000000
  0.272727  0.388889  0.285714      4.000000
  0.363636  0.388889  0.285714      4.000000
  0.454545  0.388889  0.285714      4.000000
 -0.454545  0.388889  0.285714      4.000000
 -0.363636  0.388889  0.285714      4.000000
 -0.272727  0.388889  0.285714      4.000000
 -0.181818  0.388889  0.285714      4.000000
 -0.090909  0.388889  0.285714      4.000000
  0.000000  0.444444  0.285714      4.000000
  0.090909  0.444444  0.285714      4.000000
  0.181818  0.444444  0.285714      4.000000
  0.272727  0.444444  0.285714      4.000000
  0.363636  0.444444  0.285714      4.000000
  0.454545  0.444444  0.285714      4.000000
 -0.454545  0.444444  0.285714      4.000000
 -0.363636  0.444444  0.285714      4.000000
 -0.272727  0.444444  0.285714      4.000000
 -0.181818  0.444444  0.285714      4.000000
 -0.090909  0.444444  0.285714      4.000000
  0.000000  0.500000  0.285714      2.000000
  0.090909  0.500000  0.285714      2.000000
  0.181818  0.500000  0.285714      2.000000
  0.272727  0.500000  0.285714      2.000000
  0.363636  0.500000  0.285714      2.000000
  0.454545  0.500000  0.285714      2.000000
 -0.454545  0.500000  0.285714      2.000000
 -0.363636  0.500000  0.285714      2.000000
 -0.272727  0.500000  0.285714      2.000000
 -0.181818  0.500000  0.285714      2.000000
 -0.090909  0.500000  0.285714      2.000000
  0.000000  0.000000  0.428571      2.000000
  0.090909  0.000000  0.428571      2.000000
  0.181818  0.000000  0.428571      2.000000
  0.272727  0.000000  0.428571      2.000000
  0.363636  0.000000  0.428571      2.000000
  0.454545  0.000000  0.428571      2.000000
 -0.454545  0.000000  0.428571      2.000000
 -0.363636  0.000000  0.428571      2.000000
 -0.272727  0.000000  0.428571      2.000000
 -0.181818  0.000000  0.428571      2.000000
 -0.090909  0.000000  0.428571      2.000000
  0.000000  0.055556  0.428571      4.000000
  0.090909  0.055556  0.428571      4.000000
  0.181818  0.055556  0.428571      4.000000
  0.272727  0.055556  0.428571      4.000000
  0.363636  0.055556  0.428571      4.000000
  0.454545  0.055556  0.428571      4.000000
 -0.454545  0.055556  0.428571      4.000000
 -0.363636  0.055556  0.428571      4.000000
 -0.272727  0.055556  0.428571      4.000000
 -0.181818  0.055556  0.428571      4.000000
 -0.090909  0.055556  0.428571      4.000000
  0.000000  0.111111  0.428571      4.000000
  0.090909  0.111111  0.428571      4.000000
  0.181818  0.111111  0.428571      4.000000
  0.272727  0.111111  0.428571      4.000000
  0.363636  0.111111  0.428571      4.000000
  0.454545  0.111111  0.428571      4.000000
 -0.454545  0.111111  0.428571      4.000000
 -0.363636  0.111111  0.428571      4.000000
 -0.272727  0.111111  0.428571      4.000000
 -0.181818  0.111111  0.428571      4.000000
 -0.090909  0.111111  0.428571      4.000000
  0.000000  0.166667  0.428571      4.000000
  0.090909  0.166667  0.428571      4.000000
  0.181818  0.166667  0.428571      4.000000
  0.272727  0.166667  0.428571      4.000000
  0.363636  0.166667  0.428571      4.000000
  0.454545  0.166667  0.428571      4.000000
 -0.454545  0.166667  0.428571      4.000000
 -0.363636  0.166667  0.428571      4.000000
 -0.272727  0.166667  0.428571      4.000000
 -0.181818  0.166667  0.428571      4.000000
 -0.090909  0.166667  0.428571      4.000000
  0.000000  0.222222  0.428571      4.000000
  0.090909  0.222222  0.428571      4.000000
  0.181818  0.222222  0.428571      4.000000
  0.272727  0.222222  0.428571      4.000000
  0.363636  0.222222  0.428571      4.000000
  0.454545  0.222222  0.428571      4.000000
 -0.454545  0.222222  0.428571      4.000000
 -0.363636  0.222222  0.428571      4.000000
 -0.272727  0.222222  0.428571      4.000000
 -0.181818  0.222222  0.428571      4.000000
 -0.090909  0.222222  0.428571      4.000000
  0.000000  0.277778  0.428571      4.000000
  0.090909  0.277778  0.428571      4.000000
  0.181818  0.277778  0.428571      4.000000
  0.272727  0.277778  0.428571      4.000000
  0.363636  0.277778  0.428571      4.000000
  0.454545  0.277778  0.428571      4.000000
 -0.454545  0.277778  0.428571      4.000000
 -0.363636  0.277778  0.428571      4.000000
 -0.272727  0.277778  0.428571      4.000000
 -0.181818  0.277778  0.428571      4.000000
 -0.090909  0.277778  0.428571      4.000000
  0.000000  0.333333  0.428571      4.000000
  0.090909  0.333333  0.428571      4.000000
  0.181818  0.333333  0.428571      4.000000
  0.272727  0.333333  0.428571      4.000000
  0.363636  0.333333  0.428571      4.000000
  0.454545  0.333333  0.428571      4.000000
 -0.454545  0.333333  0.428571      4.000000
 -0.363636  0.333333  0.428571      4.000000
 -0.272727  0.333333  0.428571      4.000000
 -0.181818  0.333333  0.428571      4.000000
 -0.090909  0.333333  0.428571      4.000000
  0.000000  0.388889  0.428571      4.000000
  0.090909  0.388889  0.428571      4.000000
  0.181818  0.388889  0.428571      4.000000
  0.272727  0.388889  0.428571      4.000000
  0.363636  0.388889  0.428571      4.000000
  0.454545  0.388889  0.428571      4.000000
 -0.454545  0.388889  0.428571      4.000000
 -0.363636  0.388889  0.428571      4.000000
 -0.272727  0.388889  0.428571      4.000000
 -0.181818  0.388889  0.428571      4.000000
 -0.090909  0.388889  0.428571      4.000000
  0.000000  0.444444  0.428571      4.000000
  0.090909  0.444444  0.428571      4.000000
  0.181818  0.444444  0.428571      4.000000
  0.272727  0.444444  0.428571      4.000000
  0.363636  0.444444  0.428571      4.000000
  0.454545  0.444444  0.428571      4.000000
 -0.454545  0.444444  0.428571      4.000000
 -0.363636  0.444444  0.428571      4.000000
 -0.272727  0.444444  0.428571      4.000000
 -0.181818  0.444444  0.428571      4.000000
 -0.090909  0.444444  0.428571      4.000000
  0.000000  0.500000  0.428571      2.000000
  0.090909  0.500000  0.428571      2.000000
  0.181818  0.500000  0.428571      2.000000
  0.272727  0.500000  0.428571      2.000000
  0.363636  0.500000  0.428571      2.000000
  0.454545  0.500000  0.428571      2.000000
 -0.454545  0.500000  0.428571      2.000000
 -0.363636  0.500000  0.428571      2.000000
 -0.272727  0.500000  0.428571      2.000000
 -0.181818  0.500000  0.428571      2.000000
 -0.090909  0.500000  0.428571      2.000000
 
 Following cartesian coordinates:
            Coordinates               Weight
  0.000000  0.000000  0.000000      1.000000
  0.018710  0.000000  0.000000      2.000000
  0.037420  0.000000  0.000000      2.000000
  0.056129  0.000000  0.000000      2.000000
  0.074839  0.000000  0.000000      2.000000
  0.093549  0.000000  0.000000      2.000000
  0.000000  0.019416  0.000000      2.000000
  0.018710  0.019416  0.000000      4.000000
  0.037420  0.019416  0.000000      4.000000
  0.056129  0.019416  0.000000      4.000000
  0.074839  0.019416  0.000000      4.000000
  0.093549  0.019416  0.000000      4.000000
  0.000000  0.038831  0.000000      2.000000
  0.018710  0.038831  0.000000      4.000000
  0.037420  0.038831  0.000000      4.000000
  0.056129  0.038831  0.000000      4.000000
  0.074839  0.038831  0.000000      4.000000
  0.093549  0.038831  0.000000      4.000000
  0.000000  0.058247  0.000000      2.000000
  0.018710  0.058247  0.000000      4.000000
  0.037420  0.058247  0.000000      4.000000
  0.056129  0.058247  0.000000      4.000000
  0.074839  0.058247  0.000000      4.000000
  0.093549  0.058247  0.000000      4.000000
  0.000000  0.077662  0.000000      2.000000
  0.018710  0.077662  0.000000      4.000000
  0.037420  0.077662  0.000000      4.000000
  0.056129  0.077662  0.000000      4.000000
  0.074839  0.077662  0.000000      4.000000
  0.093549  0.077662  0.000000      4.000000
  0.000000  0.097078  0.000000      2.000000
  0.018710  0.097078  0.000000      4.000000
  0.037420  0.097078  0.000000      4.000000
  0.056129  0.097078  0.000000      4.000000
  0.074839  0.097078  0.000000      4.000000
  0.093549  0.097078  0.000000      4.000000
  0.000000  0.116493  0.000000      2.000000
  0.018710  0.116493  0.000000      4.000000
  0.037420  0.116493  0.000000      4.000000
  0.056129  0.116493  0.000000      4.000000
  0.074839  0.116493  0.000000      4.000000
  0.093549  0.116493  0.000000      4.000000
  0.000000  0.135909  0.000000      2.000000
  0.018710  0.135909  0.000000      4.000000
  0.037420  0.135909  0.000000      4.000000
  0.056129  0.135909  0.000000      4.000000
  0.074839  0.135909  0.000000      4.000000
  0.093549  0.135909  0.000000      4.000000
  0.000000  0.155325  0.000000      2.000000
  0.018710  0.155325  0.000000      4.000000
  0.037420  0.155325  0.000000      4.000000
  0.056129  0.155325  0.000000      4.000000
  0.074839  0.155325  0.000000      4.000000
  0.093549  0.155325  0.000000      4.000000
  0.000000  0.174740  0.000000      1.000000
  0.018710  0.174740  0.000000      2.000000
  0.037420  0.174740  0.000000      2.000000
  0.056129  0.174740  0.000000      2.000000
  0.074839  0.174740  0.000000      2.000000
  0.093549  0.174740  0.000000      2.000000
  0.000000  0.000000  0.020790      2.000000
  0.018710  0.000000  0.020790      2.000000
  0.037420  0.000000  0.020790      2.000000
  0.056129  0.000000  0.020790      2.000000
  0.074839  0.000000  0.020790      2.000000
  0.093549  0.000000  0.020790      2.000000
 -0.093549  0.000000  0.020790      2.000000
 -0.074839  0.000000  0.020790      2.000000
 -0.056129  0.000000  0.020790      2.000000
 -0.037420  0.000000  0.020790      2.000000
 -0.018710  0.000000  0.020790      2.000000
  0.000000  0.019416  0.020790      4.000000
  0.018710  0.019416  0.020790      4.000000
  0.037420  0.019416  0.020790      4.000000
  0.056129  0.019416  0.020790      4.000000
  0.074839  0.019416  0.020790      4.000000
  0.093549  0.019416  0.020790      4.000000
 -0.093549  0.019416  0.020790      4.000000
 -0.074839  0.019416  0.020790      4.000000
 -0.056129  0.019416  0.020790      4.000000
 -0.037420  0.019416  0.020790      4.000000
 -0.018710  0.019416  0.020790      4.000000
  0.000000  0.038831  0.020790      4.000000
  0.018710  0.038831  0.020790      4.000000
  0.037420  0.038831  0.020790      4.000000
  0.056129  0.038831  0.020790      4.000000
  0.074839  0.038831  0.020790      4.000000
  0.093549  0.038831  0.020790      4.000000
 -0.093549  0.038831  0.020790      4.000000
 -0.074839  0.038831  0.020790      4.000000
 -0.056129  0.038831  0.020790      4.000000
 -0.037420  0.038831  0.020790      4.000000
 -0.018710  0.038831  0.020790      4.000000
  0.000000  0.058247  0.020790      4.000000
  0.018710  0.058247  0.020790      4.000000
  0.037420  0.058247  0.020790      4.000000
  0.056129  0.058247  0.020790      4.000000
  0.074839  0.058247  0.020790      4.000000
  0.093549  0.058247  0.020790      4.000000
 -0.093549  0.058247  0.020790      4.000000
 -0.074839  0.058247  0.020790      4.000000
 -0.056129  0.058247  0.020790      4.000000
 -0.037420  0.058247  0.020790      4.000000
 -0.018710  0.058247  0.020790      4.000000
  0.000000  0.077662  0.020790      4.000000
  0.018710  0.077662  0.020790      4.000000
  0.037420  0.077662  0.020790      4.000000
  0.056129  0.077662  0.020790      4.000000
  0.074839  0.077662  0.020790      4.000000
  0.093549  0.077662  0.020790      4.000000
 -0.093549  0.077662  0.020790      4.000000
 -0.074839  0.077662  0.020790      4.000000
 -0.056129  0.077662  0.020790      4.000000
 -0.037420  0.077662  0.020790      4.000000
 -0.018710  0.077662  0.020790      4.000000
  0.000000  0.097078  0.020790      4.000000
  0.018710  0.097078  0.020790      4.000000
  0.037420  0.097078  0.020790      4.000000
  0.056129  0.097078  0.020790      4.000000
  0.074839  0.097078  0.020790      4.000000
  0.093549  0.097078  0.020790      4.000000
 -0.093549  0.097078  0.020790      4.000000
 -0.074839  0.097078  0.020790      4.000000
 -0.056129  0.097078  0.020790      4.000000
 -0.037420  0.097078  0.020790      4.000000
 -0.018710  0.097078  0.020790      4.000000
  0.000000  0.116493  0.020790      4.000000
  0.018710  0.116493  0.020790      4.000000
  0.037420  0.116493  0.020790      4.000000
  0.056129  0.116493  0.020790      4.000000
  0.074839  0.116493  0.020790      4.000000
  0.093549  0.116493  0.020790      4.000000
 -0.093549  0.116493  0.020790      4.000000
 -0.074839  0.116493  0.020790      4.000000
 -0.056129  0.116493  0.020790      4.000000
 -0.037420  0.116493  0.020790      4.000000
 -0.018710  0.116493  0.020790      4.000000
  0.000000  0.135909  0.020790      4.000000
  0.018710  0.135909  0.020790      4.000000
  0.037420  0.135909  0.020790      4.000000
  0.056129  0.135909  0.020790      4.000000
  0.074839  0.135909  0.020790      4.000000
  0.093549  0.135909  0.020790      4.000000
 -0.093549  0.135909  0.020790      4.000000
 -0.074839  0.135909  0.020790      4.000000
 -0.056129  0.135909  0.020790      4.000000
 -0.037420  0.135909  0.020790      4.000000
 -0.018710  0.135909  0.020790      4.000000
  0.000000  0.155325  0.020790      4.000000
  0.018710  0.155325  0.020790      4.000000
  0.037420  0.155325  0.020790      4.000000
  0.056129  0.155325  0.020790      4.000000
  0.074839  0.155325  0.020790      4.000000
  0.093549  0.155325  0.020790      4.000000
 -0.093549  0.155325  0.020790      4.000000
 -0.074839  0.155325  0.020790      4.000000
 -0.056129  0.155325  0.020790      4.000000
 -0.037420  0.155325  0.020790      4.000000
 -0.018710  0.155325  0.020790      4.000000
  0.000000  0.174740  0.020790      2.000000
  0.018710  0.174740  0.020790      2.000000
  0.037420  0.174740  0.020790      2.000000
  0.056129  0.174740  0.020790      2.000000
  0.074839  0.174740  0.020790      2.000000
  0.093549  0.174740  0.020790      2.000000
 -0.093549  0.174740  0.020790      2.000000
 -0.074839  0.174740  0.020790      2.000000
 -0.056129  0.174740  0.020790      2.000000
 -0.037420  0.174740  0.020790      2.000000
 -0.018710  0.174740  0.020790      2.000000
  0.000000  0.000000  0.041580      2.000000
  0.018710  0.000000  0.041580      2.000000
  0.037420  0.000000  0.041580      2.000000
  0.056129  0.000000  0.041580      2.000000
  0.074839  0.000000  0.041580      2.000000
  0.093549  0.000000  0.041580      2.000000
 -0.093549  0.000000  0.041580      2.000000
 -0.074839  0.000000  0.041580      2.000000
 -0.056129  0.000000  0.041580      2.000000
 -0.037420  0.000000  0.041580      2.000000
 -0.018710  0.000000  0.041580      2.000000
  0.000000  0.019416  0.041580      4.000000
  0.018710  0.019416  0.041580      4.000000
  0.037420  0.019416  0.041580      4.000000
  0.056129  0.019416  0.041580      4.000000
  0.074839  0.019416  0.041580      4.000000
  0.093549  0.019416  0.041580      4.000000
 -0.093549  0.019416  0.041580      4.000000
 -0.074839  0.019416  0.041580      4.000000
 -0.056129  0.019416  0.041580      4.000000
 -0.037420  0.019416  0.041580      4.000000
 -0.018710  0.019416  0.041580      4.000000
  0.000000  0.038831  0.041580      4.000000
  0.018710  0.038831  0.041580      4.000000
  0.037420  0.038831  0.041580      4.000000
  0.056129  0.038831  0.041580      4.000000
  0.074839  0.038831  0.041580      4.000000
  0.093549  0.038831  0.041580      4.000000
 -0.093549  0.038831  0.041580      4.000000
 -0.074839  0.038831  0.041580      4.000000
 -0.056129  0.038831  0.041580      4.000000
 -0.037420  0.038831  0.041580      4.000000
 -0.018710  0.038831  0.041580      4.000000
  0.000000  0.058247  0.041580      4.000000
  0.018710  0.058247  0.041580      4.000000
  0.037420  0.058247  0.041580      4.000000
  0.056129  0.058247  0.041580      4.000000
  0.074839  0.058247  0.041580      4.000000
  0.093549  0.058247  0.041580      4.000000
 -0.093549  0.058247  0.041580      4.000000
 -0.074839  0.058247  0.041580      4.000000
 -0.056129  0.058247  0.041580      4.000000
 -0.037420  0.058247  0.041580      4.000000
 -0.018710  0.058247  0.041580      4.000000
  0.000000  0.077662  0.041580      4.000000
  0.018710  0.077662  0.041580      4.000000
  0.037420  0.077662  0.041580      4.000000
  0.056129  0.077662  0.041580      4.000000
  0.074839  0.077662  0.041580      4.000000
  0.093549  0.077662  0.041580      4.000000
 -0.093549  0.077662  0.041580      4.000000
 -0.074839  0.077662  0.041580      4.000000
 -0.056129  0.077662  0.041580      4.000000
 -0.037420  0.077662  0.041580      4.000000
 -0.018710  0.077662  0.041580      4.000000
  0.000000  0.097078  0.041580      4.000000
  0.018710  0.097078  0.041580      4.000000
  0.037420  0.097078  0.041580      4.000000
  0.056129  0.097078  0.041580      4.000000
  0.074839  0.097078  0.041580      4.000000
  0.093549  0.097078  0.041580      4.000000
 -0.093549  0.097078  0.041580      4.000000
 -0.074839  0.097078  0.041580      4.000000
 -0.056129  0.097078  0.041580      4.000000
 -0.037420  0.097078  0.041580      4.000000
 -0.018710  0.097078  0.041580      4.000000
  0.000000  0.116493  0.041580      4.000000
  0.018710  0.116493  0.041580      4.000000
  0.037420  0.116493  0.041580      4.000000
  0.056129  0.116493  0.041580      4.000000
  0.074839  0.116493  0.041580      4.000000
  0.093549  0.116493  0.041580      4.000000
 -0.093549  0.116493  0.041580      4.000000
 -0.074839  0.116493  0.041580      4.000000
 -0.056129  0.116493  0.041580      4.000000
 -0.037420  0.116493  0.041580      4.000000
 -0.018710  0.116493  0.041580      4.000000
  0.000000  0.135909  0.041580      4.000000
  0.018710  0.135909  0.041580      4.000000
  0.037420  0.135909  0.041580      4.000000
  0.056129  0.135909  0.041580      4.000000
  0.074839  0.135909  0.041580      4.000000
  0.093549  0.135909  0.041580      4.000000
 -0.093549  0.135909  0.041580      4.000000
 -0.074839  0.135909  0.041580      4.000000
 -0.056129  0.135909  0.041580      4.000000
 -0.037420  0.135909  0.041580      4.000000
 -0.018710  0.135909  0.041580      4.000000
  0.000000  0.155325  0.041580      4.000000
  0.018710  0.155325  0.041580      4.000000
  0.037420  0.155325  0.041580      4.000000
  0.056129  0.155325  0.041580      4.000000
  0.074839  0.155325  0.041580      4.000000
  0.093549  0.155325  0.041580      4.000000
 -0.093549  0.155325  0.041580      4.000000
 -0.074839  0.155325  0.041580      4.000000
 -0.056129  0.155325  0.041580      4.000000
 -0.037420  0.155325  0.041580      4.000000
 -0.018710  0.155325  0.041580      4.000000
  0.000000  0.174740  0.041580      2.000000
  0.018710  0.174740  0.041580      2.000000
  0.037420  0.174740  0.041580      2.000000
  0.056129  0.174740  0.041580      2.000000
  0.074839  0.174740  0.041580      2.000000
  0.093549  0.174740  0.041580      2.000000
 -0.093549  0.174740  0.041580      2.000000
 -0.074839  0.174740  0.041580      2.000000
 -0.056129  0.174740  0.041580      2.000000
 -0.037420  0.174740  0.041580      2.000000
 -0.018710  0.174740  0.041580      2.000000
  0.000000  0.000000  0.062369      2.000000
  0.018710  0.000000  0.062369      2.000000
  0.037420  0.000000  0.062369      2.000000
  0.056129  0.000000  0.062369      2.000000
  0.074839  0.000000  0.062369      2.000000
  0.093549  0.000000  0.062369      2.000000
 -0.093549  0.000000  0.062369      2.000000
 -0.074839  0.000000  0.062369      2.000000
 -0.056129  0.000000  0.062369      2.000000
 -0.037420  0.000000  0.062369      2.000000
 -0.018710  0.000000  0.062369      2.000000
  0.000000  0.019416  0.062369      4.000000
  0.018710  0.019416  0.062369      4.000000
  0.037420  0.019416  0.062369      4.000000
  0.056129  0.019416  0.062369      4.000000
  0.074839  0.019416  0.062369      4.000000
  0.093549  0.019416  0.062369      4.000000
 -0.093549  0.019416  0.062369      4.000000
 -0.074839  0.019416  0.062369      4.000000
 -0.056129  0.019416  0.062369      4.000000
 -0.037420  0.019416  0.062369      4.000000
 -0.018710  0.019416  0.062369      4.000000
  0.000000  0.038831  0.062369      4.000000
  0.018710  0.038831  0.062369      4.000000
  0.037420  0.038831  0.062369      4.000000
  0.056129  0.038831  0.062369      4.000000
  0.074839  0.038831  0.062369      4.000000
  0.093549  0.038831  0.062369      4.000000
 -0.093549  0.038831  0.062369      4.000000
 -0.074839  0.038831  0.062369      4.000000
 -0.056129  0.038831  0.062369      4.000000
 -0.037420  0.038831  0.062369      4.000000
 -0.018710  0.038831  0.062369      4.000000
  0.000000  0.058247  0.062369      4.000000
  0.018710  0.058247  0.062369      4.000000
  0.037420  0.058247  0.062369      4.000000
  0.056129  0.058247  0.062369      4.000000
  0.074839  0.058247  0.062369      4.000000
  0.093549  0.058247  0.062369      4.000000
 -0.093549  0.058247  0.062369      4.000000
 -0.074839  0.058247  0.062369      4.000000
 -0.056129  0.058247  0.062369      4.000000
 -0.037420  0.058247  0.062369      4.000000
 -0.018710  0.058247  0.062369      4.000000
  0.000000  0.077662  0.062369      4.000000
  0.018710  0.077662  0.062369      4.000000
  0.037420  0.077662  0.062369      4.000000
  0.056129  0.077662  0.062369      4.000000
  0.074839  0.077662  0.062369      4.000000
  0.093549  0.077662  0.062369      4.000000
 -0.093549  0.077662  0.062369      4.000000
 -0.074839  0.077662  0.062369      4.000000
 -0.056129  0.077662  0.062369      4.000000
 -0.037420  0.077662  0.062369      4.000000
 -0.018710  0.077662  0.062369      4.000000
  0.000000  0.097078  0.062369      4.000000
  0.018710  0.097078  0.062369      4.000000
  0.037420  0.097078  0.062369      4.000000
  0.056129  0.097078  0.062369      4.000000
  0.074839  0.097078  0.062369      4.000000
  0.093549  0.097078  0.062369      4.000000
 -0.093549  0.097078  0.062369      4.000000
 -0.074839  0.097078  0.062369      4.000000
 -0.056129  0.097078  0.062369      4.000000
 -0.037420  0.097078  0.062369      4.000000
 -0.018710  0.097078  0.062369      4.000000
  0.000000  0.116493  0.062369      4.000000
  0.018710  0.116493  0.062369      4.000000
  0.037420  0.116493  0.062369      4.000000
  0.056129  0.116493  0.062369      4.000000
  0.074839  0.116493  0.062369      4.000000
  0.093549  0.116493  0.062369      4.000000
 -0.093549  0.116493  0.062369      4.000000
 -0.074839  0.116493  0.062369      4.000000
 -0.056129  0.116493  0.062369      4.000000
 -0.037420  0.116493  0.062369      4.000000
 -0.018710  0.116493  0.062369      4.000000
  0.000000  0.135909  0.062369      4.000000
  0.018710  0.135909  0.062369      4.000000
  0.037420  0.135909  0.062369      4.000000
  0.056129  0.135909  0.062369      4.000000
  0.074839  0.135909  0.062369      4.000000
  0.093549  0.135909  0.062369      4.000000
 -0.093549  0.135909  0.062369      4.000000
 -0.074839  0.135909  0.062369      4.000000
 -0.056129  0.135909  0.062369      4.000000
 -0.037420  0.135909  0.062369      4.000000
 -0.018710  0.135909  0.062369      4.000000
  0.000000  0.155325  0.062369      4.000000
  0.018710  0.155325  0.062369      4.000000
  0.037420  0.155325  0.062369      4.000000
  0.056129  0.155325  0.062369      4.000000
  0.074839  0.155325  0.062369      4.000000
  0.093549  0.155325  0.062369      4.000000
 -0.093549  0.155325  0.062369      4.000000
 -0.074839  0.155325  0.062369      4.000000
 -0.056129  0.155325  0.062369      4.000000
 -0.037420  0.155325  0.062369      4.000000
 -0.018710  0.155325  0.062369      4.000000
  0.000000  0.174740  0.062369      2.000000
  0.018710  0.174740  0.062369      2.000000
  0.037420  0.174740  0.062369      2.000000
  0.056129  0.174740  0.062369      2.000000
  0.074839  0.174740  0.062369      2.000000
  0.093549  0.174740  0.062369      2.000000
 -0.093549  0.174740  0.062369      2.000000
 -0.074839  0.174740  0.062369      2.000000
 -0.056129  0.174740  0.062369      2.000000
 -0.037420  0.174740  0.062369      2.000000
 -0.018710  0.174740  0.062369      2.000000
 


--------------------------------------------------------------------------------------------------------




 Dimension of arrays:
   k-points           NKPTS =    390   k-points in BZ     NKDIM =    390   number of bands    NBANDS=     36
   number of dos      NEDOS =    301   number of ions     NIONS =      6
   non local maximal  LDIM  =      6   non local SUM 2l+1 LMDIM =     18
   total plane-waves  NPLWV =  51840
   max r-space proj   IRMAX =      1   max aug-charges    IRDMAX=   4459
   dimension x,y,z NGX =    40 NGY =   24 NGZ =   54
   dimension x,y,z NGXF=    40 NGYF=   24 NGZF=   56
   support grid    NGXF=    40 NGYF=   24 NGZF=   56
   ions per type =               6
   NGX,Y,Z   is equivalent  to a cutoff of  13.69, 13.94, 13.06 a.u.
   NGXF,Y,Z  is equivalent  to a cutoff of  13.69, 13.94, 13.55 a.u.

 SYSTEM =  unknown system                          
 POSCAR =  Pt                                      

 Startparameter for this run:
   NWRITE =      0    write-flag & timer
   PREC   = h         normal or accurate (medium, high low for compatibility)
   ISTART =      0    job   : 0-new  1-cont  2-samecut
   ICHARG =      2    charge: 1-file 2-atom 10-const
   ISPIN  =      1    spin polarized calculation?
   LNONCOLLINEAR =      F non collinear calculations
   LSORBIT =      F    spin-orbit coupling
   INIWAV =      1    electr: 0-lowe 1-rand  2-diag
   LASPH  =      F    aspherical Exc in radial PAW
   METAGGA=      F    non-selfconsistent MetaGGA calc.

 Electronic Relaxation 1
   ENCUT  =  550.0 eV  40.42 Ry    6.36 a.u.   9.29  5.47 13.14*2*pi/ulx,y,z
   ENINI  =  550.0     initial cutoff
   ENAUG  =  359.0 eV  augmentation charge cutoff
   NELM   =     60;   NELMIN=  2; NELMDL= -5     # of ELM steps 
   EDIFF  = 0.1E-05   stopping-criterion for ELM
   LREAL  =      F    real-space projection
   NLSPLINE    = F    spline interpolate recip. space projectors
   LCOMPAT=      F    compatible to vasp.4.4
   GGA_COMPAT  = T    GGA compatible to vasp.4.4-vasp.4.6
   LMAXPAW     = -100 max onsite density
   LMAXMIX     =    2 max onsite mixed and CHGCAR
   VOSKOWN=      0    Vosko Wilk Nusair interpolation
   ROPT   =    0.00000
 Ionic relaxation
   EDIFFG = -.1E-01   stopping-criterion for IOM
   NSW    =    200    number of steps for IOM
   NBLOCK =      1;   KBLOCK =    200    inner block; outer block 
   IBRION =      1    ionic relax: 0-MD 1-quasi-New 2-CG
   NFREE  =      0    steps in history (QN), initial steepest desc. (CG)
   ISIF   =      3    stress and relaxation
   IWAVPR =     11    prediction:  0-non 1-charg 2-wave 3-comb
   ISYM   =      2    0-nonsym 1-usesym 2-fastsym
   LCORR  =      T    Harris-Foulkes like correction to forces

   POTIM  = 0.1000    time-step for ionic-motion
   TEIN   =    0.0    initial temperature
   TEBEG  =    0.0;   TEEND  =   0.0 temperature during run
   SMASS  =  -3.00    Nose mass-parameter (am)
   estimated Nose-frequenzy (Omega)   =  0.10E-29 period in steps =****** mass=  -0.540E-27a.u.
   SCALEE = 1.0000    scale energy and forces
   NPACO  =    256;   APACO  = 16.0  distance and # of slots for P.C.
   PSTRESS=    0.0 pullay stress

  Mass of Ions in am
   POMASS = 195.08
  Ionic Valenz
   ZVAL   =  10.00
  Atomic Wigner-Seitz radii
   RWIGS  =  -1.00
  virtual crystal weights 
   VCA    =   1.00
   NELECT =      60.0000    total number of electrons
   NUPDOWN=      -1.0000    fix difference up-down

 DOS related values:
   EMIN   =  10.00;   EMAX   =-10.00  energy-range for DOS
   EFERMI =   0.00
   ISMEAR =     1;   SIGMA  =   0.10  broadening in eV -4-tet -1-fermi 0-gaus

 Electronic relaxation 2 (details)
   IALGO  =     68    algorithm
   LDIAG  =      T    sub-space diagonalisation (order eigenvalues)
   LSUBROT=      F    optimize rotation matrix (better conditioning)
   TURBO    =      0    0=normal 1=particle mesh
   IRESTART =      0    0=no restart 2=restart with 2 vectors
   NREBOOT  =      0    no. of reboots
   NMIN     =      0    reboot dimension
   EREF     =   0.00    reference energy to select bands
   IMIX   =      4    mixing-type and parameters
     AMIX     =   0.40;   BMIX     =  1.00
     AMIX_MAG =   1.60;   BMIX_MAG =  1.00
     AMIN     =   0.10
     WC   =   100.;   INIMIX=   1;  MIXPRE=   1;  MAXMIX= -45

 Intra band minimization:
   WEIMIN = 0.0010     energy-eigenvalue tresh-hold
   EBREAK =  0.69E-08  absolut break condition
   DEPER  =   0.30     relativ break condition  

   TIME   =   0.40     timestep for ELM

  volume/ion in A,a.u.               =      15.92       107.45
  Fermi-wavevector in a.u.,A,eV,Ry     =   1.401962  2.649323 26.742202  1.965496
  Thomas-Fermi vector in A             =   2.524771
 
 Write flags
   LWAVE        =      F    write WAVECAR
   LDOWNSAMPLE  =      F    k-point downsampling of WAVECAR
   LCHARG       =      F    write CHGCAR
   LVTOT        =      F    write LOCPOT, total local potential
   LVHAR        =      F    write LOCPOT, Hartree potential only
   LELF         =      F    write electronic localiz. function (ELF)
   LORBIT       =      0    0 simple, 1 ext, 2 COOP (PROOUT), +10 PAW based schemes


 Dipole corrections
   LMONO  =      F    monopole corrections only (constant potential shift)
   LDIPOL =      F    correct potential (dipole corrections)
   IDIPOL =      0    1-x, 2-y, 3-z, 4-all directions 
   EPSILON=  1.0000000 bulk dielectric constant

 Exchange correlation treatment:
   GGA     =    --    GGA type
   LEXCH   =     8    internal setting for exchange type
   VOSKOWN=      0    Vosko Wilk Nusair interpolation
   LHFCALC =     F    Hartree Fock is set to
   LHFONE  =     F    Hartree Fock one center treatment
   AEXX    =    0.0000 exact exchange contribution

 Linear response parameters
   LEPSILON=     F    determine dielectric tensor
   LRPA    =     F    only Hartree local field effects (RPA)
   LNABLA  =     F    use nabla operator in PAW spheres
   LVEL    =     F    velocity operator in full k-point grid
   LINTERFAST=   F  fast interpolation
   KINTER  =     0    interpolate to denser k-point grid
   CSHIFT  =0.1000    complex shift for real part using Kramers Kronig
   OMEGAMAX=  -1.0    maximum frequency
   DEG_THRESHOLD= 0.2000000E-02 threshold for treating states as degnerate
   RTIME   =   -0.100 relaxation time in fs
  (WPLASMAI=    0.000 imaginary part of plasma frequency in eV, 0.658/RTIME)
   DFIELD  = 0.0000000 0.0000000 0.0000000 field for delta impulse in time
 
 Orbital magnetization related:
   ORBITALMAG=     F  switch on orbital magnetization
   LCHIMAG   =     F  perturbation theory with respect to B field
   DQ        =  0.001000  dq finite difference perturbation B field
   LLRAUG    =     F  two centre corrections for induced B field



--------------------------------------------------------------------------------------------------------


 quasi-Newton-method for relaxation of ions
 charge density and potential will be updated during run
 non-spin polarized calculation
 RMM-DIIS sequential band-by-band and
  variant of blocked Davidson during initial phase
 perform sub-space diagonalisation
    before iterative eigenvector-optimisation
 modified Broyden-mixing scheme, WC =      100.0
 initial mixing is a Kerker type mixing with AMIX =  0.4000 and BMIX =      1.0000
 Hartree-type preconditioning will be used
 using additional bands            6
 reciprocal scheme for non local part
 use partial core corrections
 calculate Harris-corrections to forces 
   (improved forces if not selfconsistent)
 use gradient corrections 
 use of overlap-Matrix (Vanderbilt PP)
 Methfessel and Paxton  Order N= 1 SIGMA  =   0.10


--------------------------------------------------------------------------------------------------------


  energy-cutoff  :      550.00
  volume of cell :       95.54
      direct lattice vectors                 reciprocal lattice vectors
     4.858896010  0.000000000  0.000000000     0.205808068  0.000000000  0.000000000
     0.000000000  2.861390618  0.000000000     0.000000000  0.349480422  0.000000000
     0.000000000  0.000000000  6.871516630     0.000000000  0.000000000  0.145528281

  length of vectors
     4.858896010  2.861390618  6.871516630     0.205808068  0.349480422  0.145528281


 
 k-points in units of 2pi/SCALE and weight: K-Spacing Value to Generate K-Mesh: 0.02
   0.00000000  0.00000000  0.00000000       0.001
   0.01870982  0.00000000  0.00000000       0.001
   0.03741965  0.00000000  0.00000000       0.001
   0.05612947  0.00000000  0.00000000       0.001
   0.07483930  0.00000000  0.00000000       0.001
   0.09354912  0.00000000  0.00000000       0.001
   0.00000000  0.01941558  0.00000000       0.001
   0.01870982  0.01941558  0.00000000       0.003
   0.03741965  0.01941558  0.00000000       0.003
   0.05612947  0.01941558  0.00000000       0.003
   0.07483930  0.01941558  0.00000000       0.003
   0.09354912  0.01941558  0.00000000       0.003
   0.00000000  0.03883116  0.00000000       0.001
   0.01870982  0.03883116  0.00000000       0.003
   0.03741965  0.03883116  0.00000000       0.003
   0.05612947  0.03883116  0.00000000       0.003
   0.07483930  0.03883116  0.00000000       0.003
   0.09354912  0.03883116  0.00000000       0.003
   0.00000000  0.05824674  0.00000000       0.001
   0.01870982  0.05824674  0.00000000       0.003
   0.03741965  0.05824674  0.00000000       0.003
   0.05612947  0.05824674  0.00000000       0.003
   0.07483930  0.05824674  0.00000000       0.003
   0.09354912  0.05824674  0.00000000       0.003
   0.00000000  0.07766232  0.00000000       0.001
   0.01870982  0.07766232  0.00000000       0.003
   0.03741965  0.07766232  0.00000000       0.003
   0.05612947  0.07766232  0.00000000       0.003
   0.07483930  0.07766232  0.00000000       0.003
   0.09354912  0.07766232  0.00000000       0.003
   0.00000000  0.09707789  0.00000000       0.001
   0.01870982  0.09707789  0.00000000       0.003
   0.03741965  0.09707789  0.00000000       0.003
   0.05612947  0.09707789  0.00000000       0.003
   0.07483930  0.09707789  0.00000000       0.003
   0.09354912  0.09707789  0.00000000       0.003
   0.00000000  0.11649347  0.00000000       0.001
   0.01870982  0.11649347  0.00000000       0.003
   0.03741965  0.11649347  0.00000000       0.003
   0.05612947  0.11649347  0.00000000       0.003
   0.07483930  0.11649347  0.00000000       0.003
   0.09354912  0.11649347  0.00000000       0.003
   0.00000000  0.13590905  0.00000000       0.001
   0.01870982  0.13590905  0.00000000       0.003
   0.03741965  0.13590905  0.00000000       0.003
   0.05612947  0.13590905  0.00000000       0.003
   0.07483930  0.13590905  0.00000000       0.003
   0.09354912  0.13590905  0.00000000       0.003
   0.00000000  0.15532463  0.00000000       0.001
   0.01870982  0.15532463  0.00000000       0.003
   0.03741965  0.15532463  0.00000000       0.003
   0.05612947  0.15532463  0.00000000       0.003
   0.07483930  0.15532463  0.00000000       0.003
   0.09354912  0.15532463  0.00000000       0.003
   0.00000000  0.17474021  0.00000000       0.001
   0.01870982  0.17474021  0.00000000       0.001
   0.03741965  0.17474021  0.00000000       0.001
   0.05612947  0.17474021  0.00000000       0.001
   0.07483930  0.17474021  0.00000000       0.001
   0.09354912  0.17474021  0.00000000       0.001
   0.00000000  0.00000000  0.02078975       0.001
   0.01870982  0.00000000  0.02078975       0.001
   0.03741965  0.00000000  0.02078975       0.001
   0.05612947  0.00000000  0.02078975       0.001
   0.07483930  0.00000000  0.02078975       0.001
   0.09354912  0.00000000  0.02078975       0.001
  -0.09354912  0.00000000  0.02078975       0.001
  -0.07483930  0.00000000  0.02078975       0.001
  -0.05612947  0.00000000  0.02078975       0.001
  -0.03741965  0.00000000  0.02078975       0.001
  -0.01870982  0.00000000  0.02078975       0.001
   0.00000000  0.01941558  0.02078975       0.003
   0.01870982  0.01941558  0.02078975       0.003
   0.03741965  0.01941558  0.02078975       0.003
   0.05612947  0.01941558  0.02078975       0.003
   0.07483930  0.01941558  0.02078975       0.003
   0.09354912  0.01941558  0.02078975       0.003
  -0.09354912  0.01941558  0.02078975       0.003
  -0.07483930  0.01941558  0.02078975       0.003
  -0.05612947  0.01941558  0.02078975       0.003
  -0.03741965  0.01941558  0.02078975       0.003
  -0.01870982  0.01941558  0.02078975       0.003
   0.00000000  0.03883116  0.02078975       0.003
   0.01870982  0.03883116  0.02078975       0.003
   0.03741965  0.03883116  0.02078975       0.003
   0.05612947  0.03883116  0.02078975       0.003
   0.07483930  0.03883116  0.02078975       0.003
   0.09354912  0.03883116  0.02078975       0.003
  -0.09354912  0.03883116  0.02078975       0.003
  -0.07483930  0.03883116  0.02078975       0.003
  -0.05612947  0.03883116  0.02078975       0.003
  -0.03741965  0.03883116  0.02078975       0.003
  -0.01870982  0.03883116  0.02078975       0.003
   0.00000000  0.05824674  0.02078975       0.003
   0.01870982  0.05824674  0.02078975       0.003
   0.03741965  0.05824674  0.02078975       0.003
   0.05612947  0.05824674  0.02078975       0.003
   0.07483930  0.05824674  0.02078975       0.003
   0.09354912  0.05824674  0.02078975       0.003
  -0.09354912  0.05824674  0.02078975       0.003
  -0.07483930  0.05824674  0.02078975       0.003
  -0.05612947  0.05824674  0.02078975       0.003
  -0.03741965  0.05824674  0.02078975       0.003
  -0.01870982  0.05824674  0.02078975       0.003
   0.00000000  0.07766232  0.02078975       0.003
   0.01870982  0.07766232  0.02078975       0.003
   0.03741965  0.07766232  0.02078975       0.003
   0.05612947  0.07766232  0.02078975       0.003
   0.07483930  0.07766232  0.02078975       0.003
   0.09354912  0.07766232  0.02078975       0.003
  -0.09354912  0.07766232  0.02078975       0.003
  -0.07483930  0.07766232  0.02078975       0.003
  -0.05612947  0.07766232  0.02078975       0.003
  -0.03741965  0.07766232  0.02078975       0.003
  -0.01870982  0.07766232  0.02078975       0.003
   0.00000000  0.09707789  0.02078975       0.003
   0.01870982  0.09707789  0.02078975       0.003
   0.03741965  0.09707789  0.02078975       0.003
   0.05612947  0.09707789  0.02078975       0.003
   0.07483930  0.09707789  0.02078975       0.003
   0.09354912  0.09707789  0.02078975       0.003
  -0.09354912  0.09707789  0.02078975       0.003
  -0.07483930  0.09707789  0.02078975       0.003
  -0.05612947  0.09707789  0.02078975       0.003
  -0.03741965  0.09707789  0.02078975       0.003
  -0.01870982  0.09707789  0.02078975       0.003
   0.00000000  0.11649347  0.02078975       0.003
   0.01870982  0.11649347  0.02078975       0.003
   0.03741965  0.11649347  0.02078975       0.003
   0.05612947  0.11649347  0.02078975       0.003
   0.07483930  0.11649347  0.02078975       0.003
   0.09354912  0.11649347  0.02078975       0.003
  -0.09354912  0.11649347  0.02078975       0.003
  -0.07483930  0.11649347  0.02078975       0.003
  -0.05612947  0.11649347  0.02078975       0.003
  -0.03741965  0.11649347  0.02078975       0.003
  -0.01870982  0.11649347  0.02078975       0.003
   0.00000000  0.13590905  0.02078975       0.003
   0.01870982  0.13590905  0.02078975       0.003
   0.03741965  0.13590905  0.02078975       0.003
   0.05612947  0.13590905  0.02078975       0.003
   0.07483930  0.13590905  0.02078975       0.003
   0.09354912  0.13590905  0.02078975       0.003
  -0.09354912  0.13590905  0.02078975       0.003
  -0.07483930  0.13590905  0.02078975       0.003
  -0.05612947  0.13590905  0.02078975       0.003
  -0.03741965  0.13590905  0.02078975       0.003
  -0.01870982  0.13590905  0.02078975       0.003
   0.00000000  0.15532463  0.02078975       0.003
   0.01870982  0.15532463  0.02078975       0.003
   0.03741965  0.15532463  0.02078975       0.003
   0.05612947  0.15532463  0.02078975       0.003
   0.07483930  0.15532463  0.02078975       0.003
   0.09354912  0.15532463  0.02078975       0.003
  -0.09354912  0.15532463  0.02078975       0.003
  -0.07483930  0.15532463  0.02078975       0.003
  -0.05612947  0.15532463  0.02078975       0.003
  -0.03741965  0.15532463  0.02078975       0.003
  -0.01870982  0.15532463  0.02078975       0.003
   0.00000000  0.17474021  0.02078975       0.001
   0.01870982  0.17474021  0.02078975       0.001
   0.03741965  0.17474021  0.02078975       0.001
   0.05612947  0.17474021  0.02078975       0.001
   0.07483930  0.17474021  0.02078975       0.001
   0.09354912  0.17474021  0.02078975       0.001
  -0.09354912  0.17474021  0.02078975       0.001
  -0.07483930  0.17474021  0.02078975       0.001
  -0.05612947  0.17474021  0.02078975       0.001
  -0.03741965  0.17474021  0.02078975       0.001
  -0.01870982  0.17474021  0.02078975       0.001
   0.00000000  0.00000000  0.04157951       0.001
   0.01870982  0.00000000  0.04157951       0.001
   0.03741965  0.00000000  0.04157951       0.001
   0.05612947  0.00000000  0.04157951       0.001
   0.07483930  0.00000000  0.04157951       0.001
   0.09354912  0.00000000  0.04157951       0.001
  -0.09354912  0.00000000  0.04157951       0.001
  -0.07483930  0.00000000  0.04157951       0.001
  -0.05612947  0.00000000  0.04157951       0.001
  -0.03741965  0.00000000  0.04157951       0.001
  -0.01870982  0.00000000  0.04157951       0.001
   0.00000000  0.01941558  0.04157951       0.003
   0.01870982  0.01941558  0.04157951       0.003
   0.03741965  0.01941558  0.04157951       0.003
   0.05612947  0.01941558  0.04157951       0.003
   0.07483930  0.01941558  0.04157951       0.003
   0.09354912  0.01941558  0.04157951       0.003
  -0.09354912  0.01941558  0.04157951       0.003
  -0.07483930  0.01941558  0.04157951       0.003
  -0.05612947  0.01941558  0.04157951       0.003
  -0.03741965  0.01941558  0.04157951       0.003
  -0.01870982  0.01941558  0.04157951       0.003
   0.00000000  0.03883116  0.04157951       0.003
   0.01870982  0.03883116  0.04157951       0.003
   0.03741965  0.03883116  0.04157951       0.003
   0.05612947  0.03883116  0.04157951       0.003
   0.07483930  0.03883116  0.04157951       0.003
   0.09354912  0.03883116  0.04157951       0.003
  -0.09354912  0.03883116  0.04157951       0.003
  -0.07483930  0.03883116  0.04157951       0.003
  -0.05612947  0.03883116  0.04157951       0.003
  -0.03741965  0.03883116  0.04157951       0.003
  -0.01870982  0.03883116  0.04157951       0.003
   0.00000000  0.05824674  0.04157951       0.003
   0.01870982  0.05824674  0.04157951       0.003
   0.03741965  0.05824674  0.04157951       0.003
   0.05612947  0.05824674  0.04157951       0.003
   0.07483930  0.05824674  0.04157951       0.003
   0.09354912  0.05824674  0.04157951       0.003
  -0.09354912  0.05824674  0.04157951       0.003
  -0.07483930  0.05824674  0.04157951       0.003
  -0.05612947  0.05824674  0.04157951       0.003
  -0.03741965  0.05824674  0.04157951       0.003
  -0.01870982  0.05824674  0.04157951       0.003
   0.00000000  0.07766232  0.04157951       0.003
   0.01870982  0.07766232  0.04157951       0.003
   0.03741965  0.07766232  0.04157951       0.003
   0.05612947  0.07766232  0.04157951       0.003
   0.07483930  0.07766232  0.04157951       0.003
   0.09354912  0.07766232  0.04157951       0.003
  -0.09354912  0.07766232  0.04157951       0.003
  -0.07483930  0.07766232  0.04157951       0.003
  -0.05612947  0.07766232  0.04157951       0.003
  -0.03741965  0.07766232  0.04157951       0.003
  -0.01870982  0.07766232  0.04157951       0.003
   0.00000000  0.09707789  0.04157951       0.003
   0.01870982  0.09707789  0.04157951       0.003
   0.03741965  0.09707789  0.04157951       0.003
   0.05612947  0.09707789  0.04157951       0.003
   0.07483930  0.09707789  0.04157951       0.003
   0.09354912  0.09707789  0.04157951       0.003
  -0.09354912  0.09707789  0.04157951       0.003
  -0.07483930  0.09707789  0.04157951       0.003
  -0.05612947  0.09707789  0.04157951       0.003
  -0.03741965  0.09707789  0.04157951       0.003
  -0.01870982  0.09707789  0.04157951       0.003
   0.00000000  0.11649347  0.04157951       0.003
   0.01870982  0.11649347  0.04157951       0.003
   0.03741965  0.11649347  0.04157951       0.003
   0.05612947  0.11649347  0.04157951       0.003
   0.07483930  0.11649347  0.04157951       0.003
   0.09354912  0.11649347  0.04157951       0.003
  -0.09354912  0.11649347  0.04157951       0.003
  -0.07483930  0.11649347  0.04157951       0.003
  -0.05612947  0.11649347  0.04157951       0.003
  -0.03741965  0.11649347  0.04157951       0.003
  -0.01870982  0.11649347  0.04157951       0.003
   0.00000000  0.13590905  0.04157951       0.003
   0.01870982  0.13590905  0.04157951       0.003
   0.03741965  0.13590905  0.04157951       0.003
   0.05612947  0.13590905  0.04157951       0.003
   0.07483930  0.13590905  0.04157951       0.003
   0.09354912  0.13590905  0.04157951       0.003
  -0.09354912  0.13590905  0.04157951       0.003
  -0.07483930  0.13590905  0.04157951       0.003
  -0.05612947  0.13590905  0.04157951       0.003
  -0.03741965  0.13590905  0.04157951       0.003
  -0.01870982  0.13590905  0.04157951       0.003
   0.00000000  0.15532463  0.04157951       0.003
   0.01870982  0.15532463  0.04157951       0.003
   0.03741965  0.15532463  0.04157951       0.003
   0.05612947  0.15532463  0.04157951       0.003
   0.07483930  0.15532463  0.04157951       0.003
   0.09354912  0.15532463  0.04157951       0.003
  -0.09354912  0.15532463  0.04157951       0.003
  -0.07483930  0.15532463  0.04157951       0.003
  -0.05612947  0.15532463  0.04157951       0.003
  -0.03741965  0.15532463  0.04157951       0.003
  -0.01870982  0.15532463  0.04157951       0.003
   0.00000000  0.17474021  0.04157951       0.001
   0.01870982  0.17474021  0.04157951       0.001
   0.03741965  0.17474021  0.04157951       0.001
   0.05612947  0.17474021  0.04157951       0.001
   0.07483930  0.17474021  0.04157951       0.001
   0.09354912  0.17474021  0.04157951       0.001
  -0.09354912  0.17474021  0.04157951       0.001
  -0.07483930  0.17474021  0.04157951       0.001
  -0.05612947  0.17474021  0.04157951       0.001
  -0.03741965  0.17474021  0.04157951       0.001
  -0.01870982  0.17474021  0.04157951       0.001
   0.00000000  0.00000000  0.06236926       0.001
   0.01870982  0.00000000  0.06236926       0.001
   0.03741965  0.00000000  0.06236926       0.001
   0.05612947  0.00000000  0.06236926       0.001
   0.07483930  0.00000000  0.06236926       0.001
   0.09354912  0.00000000  0.06236926       0.001
  -0.09354912  0.00000000  0.06236926       0.001
  -0.07483930  0.00000000  0.06236926       0.001
  -0.05612947  0.00000000  0.06236926       0.001
  -0.03741965  0.00000000  0.06236926       0.001
  -0.01870982  0.00000000  0.06236926       0.001
   0.00000000  0.01941558  0.06236926       0.003
   0.01870982  0.01941558  0.06236926       0.003
   0.03741965  0.01941558  0.06236926       0.003
   0.05612947  0.01941558  0.06236926       0.003
   0.07483930  0.01941558  0.06236926       0.003
   0.09354912  0.01941558  0.06236926       0.003
  -0.09354912  0.01941558  0.06236926       0.003
  -0.07483930  0.01941558  0.06236926       0.003
  -0.05612947  0.01941558  0.06236926       0.003
  -0.03741965  0.01941558  0.06236926       0.003
  -0.01870982  0.01941558  0.06236926       0.003
   0.00000000  0.03883116  0.06236926       0.003
   0.01870982  0.03883116  0.06236926       0.003
   0.03741965  0.03883116  0.06236926       0.003
   0.05612947  0.03883116  0.06236926       0.003
   0.07483930  0.03883116  0.06236926       0.003
   0.09354912  0.03883116  0.06236926       0.003
  -0.09354912  0.03883116  0.06236926       0.003
  -0.07483930  0.03883116  0.06236926       0.003
  -0.05612947  0.03883116  0.06236926       0.003
  -0.03741965  0.03883116  0.06236926       0.003
  -0.01870982  0.03883116  0.06236926       0.003
   0.00000000  0.05824674  0.06236926       0.003
   0.01870982  0.05824674  0.06236926       0.003
   0.03741965  0.05824674  0.06236926       0.003
   0.05612947  0.05824674  0.06236926       0.003
   0.07483930  0.05824674  0.06236926       0.003
   0.09354912  0.05824674  0.06236926       0.003
  -0.09354912  0.05824674  0.06236926       0.003
  -0.07483930  0.05824674  0.06236926       0.003
  -0.05612947  0.05824674  0.06236926       0.003
  -0.03741965  0.05824674  0.06236926       0.003
  -0.01870982  0.05824674  0.06236926       0.003
   0.00000000  0.07766232  0.06236926       0.003
   0.01870982  0.07766232  0.06236926       0.003
   0.03741965  0.07766232  0.06236926       0.003
   0.05612947  0.07766232  0.06236926       0.003
   0.07483930  0.07766232  0.06236926       0.003
   0.09354912  0.07766232  0.06236926       0.003
  -0.09354912  0.07766232  0.06236926       0.003
  -0.07483930  0.07766232  0.06236926       0.003
  -0.05612947  0.07766232  0.06236926       0.003
  -0.03741965  0.07766232  0.06236926       0.003
  -0.01870982  0.07766232  0.06236926       0.003
   0.00000000  0.09707789  0.06236926       0.003
   0.01870982  0.09707789  0.06236926       0.003
   0.03741965  0.09707789  0.06236926       0.003
   0.05612947  0.09707789  0.06236926       0.003
   0.07483930  0.09707789  0.06236926       0.003
   0.09354912  0.09707789  0.06236926       0.003
  -0.09354912  0.09707789  0.06236926       0.003
  -0.07483930  0.09707789  0.06236926       0.003
  -0.05612947  0.09707789  0.06236926       0.003
  -0.03741965  0.09707789  0.06236926       0.003
  -0.01870982  0.09707789  0.06236926       0.003
   0.00000000  0.11649347  0.06236926       0.003
   0.01870982  0.11649347  0.06236926       0.003
   0.03741965  0.11649347  0.06236926       0.003
   0.05612947  0.11649347  0.06236926       0.003
   0.07483930  0.11649347  0.06236926       0.003
   0.09354912  0.11649347  0.06236926       0.003
  -0.09354912  0.11649347  0.06236926       0.003
  -0.07483930  0.11649347  0.06236926       0.003
  -0.05612947  0.11649347  0.06236926       0.003
  -0.03741965  0.11649347  0.06236926       0.003
  -0.01870982  0.11649347  0.06236926       0.003
   0.00000000  0.13590905  0.06236926       0.003
   0.01870982  0.13590905  0.06236926       0.003
   0.03741965  0.13590905  0.06236926       0.003
   0.05612947  0.13590905  0.06236926       0.003
   0.07483930  0.13590905  0.06236926       0.003
   0.09354912  0.13590905  0.06236926       0.003
  -0.09354912  0.13590905  0.06236926       0.003
  -0.07483930  0.13590905  0.06236926       0.003
  -0.05612947  0.13590905  0.06236926       0.003
  -0.03741965  0.13590905  0.06236926       0.003
  -0.01870982  0.13590905  0.06236926       0.003
   0.00000000  0.15532463  0.06236926       0.003
   0.01870982  0.15532463  0.06236926       0.003
   0.03741965  0.15532463  0.06236926       0.003
   0.05612947  0.15532463  0.06236926       0.003
   0.07483930  0.15532463  0.06236926       0.003
   0.09354912  0.15532463  0.06236926       0.003
  -0.09354912  0.15532463  0.06236926       0.003
  -0.07483930  0.15532463  0.06236926       0.003
  -0.05612947  0.15532463  0.06236926       0.003
  -0.03741965  0.15532463  0.06236926       0.003
  -0.01870982  0.15532463  0.06236926       0.003
   0.00000000  0.17474021  0.06236926       0.001
   0.01870982  0.17474021  0.06236926       0.001
   0.03741965  0.17474021  0.06236926       0.001
   0.05612947  0.17474021  0.06236926       0.001
   0.07483930  0.17474021  0.06236926       0.001
   0.09354912  0.17474021  0.06236926       0.001
  -0.09354912  0.17474021  0.06236926       0.001
  -0.07483930  0.17474021  0.06236926       0.001
  -0.05612947  0.17474021  0.06236926       0.001
  -0.03741965  0.17474021  0.06236926       0.001
  -0.01870982  0.17474021  0.06236926       0.001
 
 k-points in reciprocal lattice and weights: K-Spacing Value to Generate K-Mesh: 0.02
   0.00000000  0.00000000  0.00000000       0.001
   0.09090909  0.00000000  0.00000000       0.001
   0.18181818  0.00000000  0.00000000       0.001
   0.27272727  0.00000000  0.00000000       0.001
   0.36363636  0.00000000  0.00000000       0.001
   0.45454545  0.00000000  0.00000000       0.001
   0.00000000  0.05555556  0.00000000       0.001
   0.09090909  0.05555556  0.00000000       0.003
   0.18181818  0.05555556  0.00000000       0.003
   0.27272727  0.05555556  0.00000000       0.003
   0.36363636  0.05555556  0.00000000       0.003
   0.45454545  0.05555556  0.00000000       0.003
   0.00000000  0.11111111  0.00000000       0.001
   0.09090909  0.11111111  0.00000000       0.003
   0.18181818  0.11111111  0.00000000       0.003
   0.27272727  0.11111111  0.00000000       0.003
   0.36363636  0.11111111  0.00000000       0.003
   0.45454545  0.11111111  0.00000000       0.003
   0.00000000  0.16666667  0.00000000       0.001
   0.09090909  0.16666667  0.00000000       0.003
   0.18181818  0.16666667  0.00000000       0.003
   0.27272727  0.16666667  0.00000000       0.003
   0.36363636  0.16666667  0.00000000       0.003
   0.45454545  0.16666667  0.00000000       0.003
   0.00000000  0.22222222  0.00000000       0.001
   0.09090909  0.22222222  0.00000000       0.003
   0.18181818  0.22222222  0.00000000       0.003
   0.27272727  0.22222222  0.00000000       0.003
   0.36363636  0.22222222  0.00000000       0.003
   0.45454545  0.22222222  0.00000000       0.003
   0.00000000  0.27777778  0.00000000       0.001
   0.09090909  0.27777778  0.00000000       0.003
   0.18181818  0.27777778  0.00000000       0.003
   0.27272727  0.27777778  0.00000000       0.003
   0.36363636  0.27777778  0.00000000       0.003
   0.45454545  0.27777778  0.00000000       0.003
   0.00000000  0.33333333  0.00000000       0.001
   0.09090909  0.33333333  0.00000000       0.003
   0.18181818  0.33333333  0.00000000       0.003
   0.27272727  0.33333333  0.00000000       0.003
   0.36363636  0.33333333  0.00000000       0.003
   0.45454545  0.33333333  0.00000000       0.003
   0.00000000  0.38888889  0.00000000       0.001
   0.09090909  0.38888889  0.00000000       0.003
   0.18181818  0.38888889  0.00000000       0.003
   0.27272727  0.38888889  0.00000000       0.003
   0.36363636  0.38888889  0.00000000       0.003
   0.45454545  0.38888889  0.00000000       0.003
   0.00000000  0.44444444  0.00000000       0.001
   0.09090909  0.44444444  0.00000000       0.003
   0.18181818  0.44444444  0.00000000       0.003
   0.27272727  0.44444444  0.00000000       0.003
   0.36363636  0.44444444  0.00000000       0.003
   0.45454545  0.44444444  0.00000000       0.003
   0.00000000  0.50000000  0.00000000       0.001
   0.09090909  0.50000000  0.00000000       0.001
   0.18181818  0.50000000  0.00000000       0.001
   0.27272727  0.50000000  0.00000000       0.001
   0.36363636  0.50000000  0.00000000       0.001
   0.45454545  0.50000000  0.00000000       0.001
   0.00000000  0.00000000  0.14285714       0.001
   0.09090909  0.00000000  0.14285714       0.001
   0.18181818  0.00000000  0.14285714       0.001
   0.27272727  0.00000000  0.14285714       0.001
   0.36363636  0.00000000  0.14285714       0.001
   0.45454545  0.00000000  0.14285714       0.001
  -0.45454545  0.00000000  0.14285714       0.001
  -0.36363636  0.00000000  0.14285714       0.001
  -0.27272727  0.00000000  0.14285714       0.001
  -0.18181818  0.00000000  0.14285714       0.001
  -0.09090909  0.00000000  0.14285714       0.001
   0.00000000  0.05555556  0.14285714       0.003
   0.09090909  0.05555556  0.14285714       0.003
   0.18181818  0.05555556  0.14285714       0.003
   0.27272727  0.05555556  0.14285714       0.003
   0.36363636  0.05555556  0.14285714       0.003
   0.45454545  0.05555556  0.14285714       0.003
  -0.45454545  0.05555556  0.14285714       0.003
  -0.36363636  0.05555556  0.14285714       0.003
  -0.27272727  0.05555556  0.14285714       0.003
  -0.18181818  0.05555556  0.14285714       0.003
  -0.09090909  0.05555556  0.14285714       0.003
   0.00000000  0.11111111  0.14285714       0.003
   0.09090909  0.11111111  0.14285714       0.003
   0.18181818  0.11111111  0.14285714       0.003
   0.27272727  0.11111111  0.14285714       0.003
   0.36363636  0.11111111  0.14285714       0.003
   0.45454545  0.11111111  0.14285714       0.003
  -0.45454545  0.11111111  0.14285714       0.003
  -0.36363636  0.11111111  0.14285714       0.003
  -0.27272727  0.11111111  0.14285714       0.003
  -0.18181818  0.11111111  0.14285714       0.003
  -0.09090909  0.11111111  0.14285714       0.003
   0.00000000  0.16666667  0.14285714       0.003
   0.09090909  0.16666667  0.14285714       0.003
   0.18181818  0.16666667  0.14285714       0.003
   0.27272727  0.16666667  0.14285714       0.003
   0.36363636  0.16666667  0.14285714       0.003
   0.45454545  0.16666667  0.14285714       0.003
  -0.45454545  0.16666667  0.14285714       0.003
  -0.36363636  0.16666667  0.14285714       0.003
  -0.27272727  0.16666667  0.14285714       0.003
  -0.18181818  0.16666667  0.14285714       0.003
  -0.09090909  0.16666667  0.14285714       0.003
   0.00000000  0.22222222  0.14285714       0.003
   0.09090909  0.22222222  0.14285714       0.003
   0.18181818  0.22222222  0.14285714       0.003
   0.27272727  0.22222222  0.14285714       0.003
   0.36363636  0.22222222  0.14285714       0.003
   0.45454545  0.22222222  0.14285714       0.003
  -0.45454545  0.22222222  0.14285714       0.003
  -0.36363636  0.22222222  0.14285714       0.003
  -0.27272727  0.22222222  0.14285714       0.003
  -0.18181818  0.22222222  0.14285714       0.003
  -0.09090909  0.22222222  0.14285714       0.003
   0.00000000  0.27777778  0.14285714       0.003
   0.09090909  0.27777778  0.14285714       0.003
   0.18181818  0.27777778  0.14285714       0.003
   0.27272727  0.27777778  0.14285714       0.003
   0.36363636  0.27777778  0.14285714       0.003
   0.45454545  0.27777778  0.14285714       0.003
  -0.45454545  0.27777778  0.14285714       0.003
  -0.36363636  0.27777778  0.14285714       0.003
  -0.27272727  0.27777778  0.14285714       0.003
  -0.18181818  0.27777778  0.14285714       0.003
  -0.09090909  0.27777778  0.14285714       0.003
   0.00000000  0.33333333  0.14285714       0.003
   0.09090909  0.33333333  0.14285714       0.003
   0.18181818  0.33333333  0.14285714       0.003
   0.27272727  0.33333333  0.14285714       0.003
   0.36363636  0.33333333  0.14285714       0.003
   0.45454545  0.33333333  0.14285714       0.003
  -0.45454545  0.33333333  0.14285714       0.003
  -0.36363636  0.33333333  0.14285714       0.003
  -0.27272727  0.33333333  0.14285714       0.003
  -0.18181818  0.33333333  0.14285714       0.003
  -0.09090909  0.33333333  0.14285714       0.003
   0.00000000  0.38888889  0.14285714       0.003
   0.09090909  0.38888889  0.14285714       0.003
   0.18181818  0.38888889  0.14285714       0.003
   0.27272727  0.38888889  0.14285714       0.003
   0.36363636  0.38888889  0.14285714       0.003
   0.45454545  0.38888889  0.14285714       0.003
  -0.45454545  0.38888889  0.14285714       0.003
  -0.36363636  0.38888889  0.14285714       0.003
  -0.27272727  0.38888889  0.14285714       0.003
  -0.18181818  0.38888889  0.14285714       0.003
  -0.09090909  0.38888889  0.14285714       0.003
   0.00000000  0.44444444  0.14285714       0.003
   0.09090909  0.44444444  0.14285714       0.003
   0.18181818  0.44444444  0.14285714       0.003
   0.27272727  0.44444444  0.14285714       0.003
   0.36363636  0.44444444  0.14285714       0.003
   0.45454545  0.44444444  0.14285714       0.003
  -0.45454545  0.44444444  0.14285714       0.003
  -0.36363636  0.44444444  0.14285714       0.003
  -0.27272727  0.44444444  0.14285714       0.003
  -0.18181818  0.44444444  0.14285714       0.003
  -0.09090909  0.44444444  0.14285714       0.003
   0.00000000  0.50000000  0.14285714       0.001
   0.09090909  0.50000000  0.14285714       0.001
   0.18181818  0.50000000  0.14285714       0.001
   0.27272727  0.50000000  0.14285714       0.001
   0.36363636  0.50000000  0.14285714       0.001
   0.45454545  0.50000000  0.14285714       0.001
  -0.45454545  0.50000000  0.14285714       0.001
  -0.36363636  0.50000000  0.14285714       0.001
  -0.27272727  0.50000000  0.14285714       0.001
  -0.18181818  0.50000000  0.14285714       0.001
  -0.09090909  0.50000000  0.14285714       0.001
   0.00000000  0.00000000  0.28571429       0.001
   0.09090909  0.00000000  0.28571429       0.001
   0.18181818  0.00000000  0.28571429       0.001
   0.27272727  0.00000000  0.28571429       0.001
   0.36363636  0.00000000  0.28571429       0.001
   0.45454545  0.00000000  0.28571429       0.001
  -0.45454545  0.00000000  0.28571429       0.001
  -0.36363636  0.00000000  0.28571429       0.001
  -0.27272727  0.00000000  0.28571429       0.001
  -0.18181818  0.00000000  0.28571429       0.001
  -0.09090909  0.00000000  0.28571429       0.001
   0.00000000  0.05555556  0.28571429       0.003
   0.09090909  0.05555556  0.28571429       0.003
   0.18181818  0.05555556  0.28571429       0.003
   0.27272727  0.05555556  0.28571429       0.003
   0.36363636  0.05555556  0.28571429       0.003
   0.45454545  0.05555556  0.28571429       0.003
  -0.45454545  0.05555556  0.28571429       0.003
  -0.36363636  0.05555556  0.28571429       0.003
  -0.27272727  0.05555556  0.28571429       0.003
  -0.18181818  0.05555556  0.28571429       0.003
  -0.09090909  0.05555556  0.28571429       0.003
   0.00000000  0.11111111  0.28571429       0.003
   0.09090909  0.11111111  0.28571429       0.003
   0.18181818  0.11111111  0.28571429       0.003
   0.27272727  0.11111111  0.28571429       0.003
   0.36363636  0.11111111  0.28571429       0.003
   0.45454545  0.11111111  0.28571429       0.003
  -0.45454545  0.11111111  0.28571429       0.003
  -0.36363636  0.11111111  0.28571429       0.003
  -0.27272727  0.11111111  0.28571429       0.003
  -0.18181818  0.11111111  0.28571429       0.003
  -0.09090909  0.11111111  0.28571429       0.003
   0.00000000  0.16666667  0.28571429       0.003
   0.09090909  0.16666667  0.28571429       0.003
   0.18181818  0.16666667  0.28571429       0.003
   0.27272727  0.16666667  0.28571429       0.003
   0.36363636  0.16666667  0.28571429       0.003
   0.45454545  0.16666667  0.28571429       0.003
  -0.45454545  0.16666667  0.28571429       0.003
  -0.36363636  0.16666667  0.28571429       0.003
  -0.27272727  0.16666667  0.28571429       0.003
  -0.18181818  0.16666667  0.28571429       0.003
[...]


    WAVPRE:  cpu time    0.0029: real time    0.0029
    FEWALD:  cpu time    0.0002: real time    0.0014
    GENKIN:  cpu time    0.1028: real time    0.1028
    ORTHCH:  cpu time    0.2392: real time    0.2392
     LOOP+:  cpu time   37.2370: real time   37.2496


--------------------------------------- Iteration      3(   1)  ---------------------------------------


    POTLOK:  cpu time    0.0030: real time    0.0055
    SETDIJ:  cpu time    0.0019: real time    0.0019
     EDDAV:  cpu time   12.8922: real time   12.8954
       DOS:  cpu time    0.0104: real time    0.0104
    CHARGE:  cpu time    0.2326: real time    0.2326
    MIXING:  cpu time    0.0002: real time    0.0002
    --------------------------------------------
      LOOP:  cpu time   13.1403: real time   13.1460

 eigenvalue-minimisations  : 28140
 total energy-change (2. order) :-0.6504024E-01  (-0.2107929E+00)
 number of electron      60.0000132 magnetization 
 augmentation part       18.4606906 magnetization 

  free energy =  -0.366191972803E+02  energy without entropy=  -0.366171636920E+02


--------------------------------------------------------------------------------------------------------




--------------------------------------- Iteration      3(   2)  ---------------------------------------


    POTLOK:  cpu time    0.0018: real time    0.0035
    SETDIJ:  cpu time    0.0018: real time    0.0018
    EDDIAG:  cpu time    1.6562: real time    1.6566
  RMM-DIIS:  cpu time    2.4275: real time    2.4279
    ORTHCH:  cpu time    0.1403: real time    0.1403
       DOS:  cpu time    0.0110: real time    0.0110
    CHARGE:  cpu time    0.2277: real time    0.2279
    MIXING:  cpu time    0.0002: real time    0.0002
    --------------------------------------------
      LOOP:  cpu time    4.4665: real time    4.4692

 eigenvalue-minimisations  : 28080
 total energy-change (2. order) : 0.5253216E-01  (-0.1015902E-01)
 number of electron      60.0000133 magnetization 
 augmentation part       18.5689632 magnetization 

 eigenvalues of (default mixing * dielectric matrix)
  average eigenvalue GAMMA=   1.2674
  1.2674

  free energy =  -0.365666651181E+02  energy without entropy=  -0.365645821026E+02


--------------------------------------------------------------------------------------------------------




--------------------------------------- Iteration      3(   3)  ---------------------------------------


    POTLOK:  cpu time    0.0017: real time    0.0017
    SETDIJ:  cpu time    0.0018: real time    0.0018
    EDDIAG:  cpu time    1.6579: real time    1.6583
  RMM-DIIS:  cpu time    2.4489: real time    2.4495
    ORTHCH:  cpu time    0.1403: real time    0.1403
       DOS:  cpu time    0.0105: real time    0.0105
    CHARGE:  cpu time    0.2292: real time    0.2292
    MIXING:  cpu time    0.0002: real time    0.0002
    --------------------------------------------
      LOOP:  cpu time    4.4905: real time    4.4915

 eigenvalue-minimisations  : 28253
 total energy-change (2. order) : 0.4962126E-02  (-0.1765505E-02)
 number of electron      60.0000134 magnetization 
 augmentation part       18.6111996 magnetization 

 eigenvalues of (default mixing * dielectric matrix)
  average eigenvalue GAMMA=   1.9090
  1.4327  2.3854

  free energy =  -0.365617029919E+02  energy without entropy=  -0.365596064023E+02


--------------------------------------------------------------------------------------------------------




--------------------------------------- Iteration      3(   4)  ---------------------------------------


    POTLOK:  cpu time    0.0018: real time    0.0018
    SETDIJ:  cpu time    0.0017: real time    0.0017
    EDDIAG:  cpu time    1.6530: real time    1.6534
  RMM-DIIS:  cpu time    2.4745: real time    2.4748
    ORTHCH:  cpu time    0.1393: real time    0.1393
       DOS:  cpu time    0.0108: real time    0.0110
    CHARGE:  cpu time    0.2298: real time    0.2298
    MIXING:  cpu time    0.0003: real time    0.0003
    --------------------------------------------
      LOOP:  cpu time    4.5112: real time    4.5123

 eigenvalue-minimisations  : 28590
 total energy-change (2. order) : 0.1076241E-03  (-0.1579163E-03)
 number of electron      60.0000134 magnetization 
 augmentation part       18.6082094 magnetization 

 eigenvalues of (default mixing * dielectric matrix)
  average eigenvalue GAMMA=   1.6666
  1.4290  1.4290  2.1417

  free energy =  -0.365615953678E+02  energy without entropy=  -0.365595098274E+02


--------------------------------------------------------------------------------------------------------




--------------------------------------- Iteration      3(   5)  ---------------------------------------


    POTLOK:  cpu time    0.0017: real time    0.0017
    SETDIJ:  cpu time    0.0017: real time    0.0017
    EDDIAG:  cpu time    1.6526: real time    1.6529
  RMM-DIIS:  cpu time    2.4692: real time    2.4698
    ORTHCH:  cpu time    0.1392: real time    0.1392
       DOS:  cpu time    0.0108: real time    0.0108
    CHARGE:  cpu time    0.2313: real time    0.2313
    MIXING:  cpu time    0.0003: real time    0.0003
    --------------------------------------------
      LOOP:  cpu time    4.5069: real time    4.5078

 eigenvalue-minimisations  : 28401
 total energy-change (2. order) : 0.1047507E-04  (-0.1810922E-04)
 number of electron      60.0000134 magnetization 
 augmentation part       18.6122510 magnetization 

 eigenvalues of (default mixing * dielectric matrix)
  average eigenvalue GAMMA=   1.5614
  2.1748  1.8421  1.3742  0.8547

  free energy =  -0.365615848927E+02  energy without entropy=  -0.365594946587E+02


--------------------------------------------------------------------------------------------------------




--------------------------------------- Iteration      3(   6)  ---------------------------------------


    POTLOK:  cpu time    0.0023: real time    0.0034
    SETDIJ:  cpu time    0.0018: real time    0.0018
    EDDIAG:  cpu time    1.6504: real time    1.6509
  RMM-DIIS:  cpu time    2.4178: real time    2.4182
    ORTHCH:  cpu time    0.1398: real time    0.1398
       DOS:  cpu time    0.0105: real time    0.0105
    --------------------------------------------
      LOOP:  cpu time    4.2225: real time    4.2245

 eigenvalue-minimisations  : 27698
 total energy-change (2. order) :-0.5140055E-06  (-0.9710168E-06)
 number of electron      60.0000134 magnetization 
 augmentation part       18.6122510 magnetization 

  free energy =  -0.365615854067E+02  energy without entropy=  -0.365594957905E+02


--------------------------------------------------------------------------------------------------------




------------------------ aborting loop because EDIFF is reached ----------------------------------------


    CHARGE:  cpu time    0.2332: real time    0.2334
    FORLOC:  cpu time    0.0001: real time    0.0001
    FORNL :  cpu time    0.6703: real time    0.6703
    STRESS:  cpu time    1.1993: real time    1.1997
    FORCOR:  cpu time    0.0015: real time    0.0015
    FORHAR:  cpu time    0.0006: real time    0.0006
    MIXING:  cpu time    0.0003: real time    0.0003
    OFIELD:  cpu time    0.0000: real time    0.0000

  FORCE on cell =-STRESS in cart. coord.  units (eV):
  Direction    XX          YY          ZZ          XY          YZ          ZX
  --------------------------------------------------------------------------------------
  Alpha Z   362.81314   362.81314   362.81314
  Ewald   -1661.43624 -1688.50398 -1630.36115     0.00000     0.00000    -9.17938
  Hartree   129.61208   121.77819   138.89700     0.00000    -0.00000    -2.88814
  E(xc)    -266.93932  -267.05154  -266.82606    -0.00000    -0.00000    -0.04530
  Local     215.24848   245.74051   179.40358     0.00000     0.00000    10.62582
  n-local    30.60321    28.25766    33.47291     0.92215    -0.85174    -0.70334
  augment   315.97545   318.11095   313.71690     0.00000     0.00000     0.68916
  Kinetic   873.03381   877.10819   868.96091     1.74481     0.25023     1.33475
  Fock        0.00000     0.00000     0.00000     0.00000     0.00000     0.00000
  -------------------------------------------------------------------------------------
  Total      -1.08939    -1.74689     0.07724     0.00000     0.00000    -0.16643
  in kB     -18.50483   -29.67340     1.31205     0.00000     0.00000    -2.82702
  external pressure =      -15.62 kB  Pullay stress =        0.00 kB



--------------------------------------------------------------------------------------------------------



  FREE ENERGIE OF THE ION-ELECTRON SYSTEM (eV)
  ---------------------------------------------------
  free  energy   TOTEN  =       -36.56158541 eV

  energy  without entropy=      -36.55949579  energy(sigma->0) =      -36.56088887
 
 d Force = 0.0000000E+00[ 0.000E+00, 0.000E+00]  d Energy = 0.7428606E-02-0.743E-02
 d Force = 0.0000000E+00[ 0.000E+00, 0.000E+00]  d Ewald  = 0.1455119E+02-0.146E+02


--------------------------------------------------------------------------------------------------------


    POTLOK:  cpu time    0.0035: real time    0.0035


--------------------------------------------------------------------------------------------------------


 stress matrix after NEB project (eV)
     -1.08939      0.00000     -0.16643
      0.00000     -1.74689      0.00000
     -0.16643      0.00000      0.07724
  FORCES: max atom, RMS     0.000000    0.000000
  FORCE total and by dimension    0.000000    0.000000
  Stress total and by dimension    2.073589    1.746892
 Quasi-Newton relaxation of ions (Broydens 2nd method)
  g(Force)  = 0.430E-43   g(Stress)= 0.959E-05

 retain information from N=  1 steps
 eigenvalues of (default step * inverse Hessian matrix)
  average eigenvalue of G=   3.1325
 eigenvalue spectrum of G is  3.1325


--------------------------------------------------------------------------------------------------------


    WAVPRE:  cpu time    0.0018: real time    0.0018
    FEWALD:  cpu time    0.0008: real time    0.0014
    GENKIN:  cpu time    0.1021: real time    0.1021
    ORTHCH:  cpu time    0.2351: real time    0.2351
     LOOP+:  cpu time   37.8068: real time   37.8212


--------------------------------------- Iteration      4(   1)  ---------------------------------------


    POTLOK:  cpu time    0.0033: real time    0.0046
    SETDIJ:  cpu time    0.0018: real time    0.0018
     EDDAV:  cpu time   15.1561: real time   15.1605
       DOS:  cpu time    0.0107: real time    0.0106
    CHARGE:  cpu time    0.2368: real time    0.2368
    MIXING:  cpu time    0.0002: real time    0.0002
    --------------------------------------------
      LOOP:  cpu time   15.4088: real time   15.4145

 eigenvalue-minimisations  : 30888
 total energy-change (2. order) :-0.1152375E-03  (-0.3896700E-03)
 number of electron      60.0000134 magnetization 
 augmentation part       18.6184074 magnetization 

  free energy =  -0.365617001302E+02  energy without entropy=  -0.365595929817E+02


--------------------------------------------------------------------------------------------------------




--------------------------------------- Iteration      4(   2)  ---------------------------------------


    POTLOK:  cpu time    0.0018: real time    0.0018
    SETDIJ:  cpu time    0.0018: real time    0.0018
    EDDIAG:  cpu time    1.6465: real time    1.6470
  RMM-DIIS:  cpu time    2.4335: real time    2.4339
    ORTHCH:  cpu time    0.1421: real time    0.1422
       DOS:  cpu time    0.0105: real time    0.0105
    CHARGE:  cpu time    0.2317: real time    0.2317
    MIXING:  cpu time    0.0002: real time    0.0002
    --------------------------------------------
      LOOP:  cpu time    4.4681: real time    4.4691

 eigenvalue-minimisations  : 28080
 total energy-change (2. order) : 0.9712221E-04  (-0.1823881E-04)
 number of electron      60.0000134 magnetization 
 augmentation part       18.6137701 magnetization 

 eigenvalues of (default mixing * dielectric matrix)
  average eigenvalue GAMMA=   1.2482
  1.2482

  free energy =  -0.365616030080E+02  energy without entropy=  -0.365595000403E+02


--------------------------------------------------------------------------------------------------------




--------------------------------------- Iteration      4(   3)  ---------------------------------------


    POTLOK:  cpu time    0.0026: real time    0.0035
    SETDIJ:  cpu time    0.0017: real time    0.0017
    EDDIAG:  cpu time    1.6556: real time    1.6558
  RMM-DIIS:  cpu time    2.4556: real time    2.4562
    ORTHCH:  cpu time    0.1410: real time    0.1410
       DOS:  cpu time    0.0110: real time    0.0110
    CHARGE:  cpu time    0.2303: real time    0.2303
    MIXING:  cpu time    0.0002: real time    0.0002
    --------------------------------------------
      LOOP:  cpu time    4.4980: real time    4.4997

 eigenvalue-minimisations  : 28240
 total energy-change (2. order) : 0.1048473E-04  (-0.3132789E-05)
 number of electron      60.0000134 magnetization 
 augmentation part       18.6119879 magnetization 

 eigenvalues of (default mixing * dielectric matrix)
  average eigenvalue GAMMA=   1.8307
  1.4574  2.2039

  free energy =  -0.365615925233E+02  energy without entropy=  -0.365594905943E+02


--------------------------------------------------------------------------------------------------------




--------------------------------------- Iteration      4(   4)  ---------------------------------------


    POTLOK:  cpu time    0.0017: real time    0.0017
    SETDIJ:  cpu time    0.0017: real time    0.0017
    EDDIAG:  cpu time    1.6524: real time    1.6528
  RMM-DIIS:  cpu time    1.6176: real time    1.6180
    ORTHCH:  cpu time    0.1419: real time    0.1419
       DOS:  cpu time    0.0107: real time    0.0107
    CHARGE:  cpu time    0.2314: real time    0.2314
    MIXING:  cpu time    0.0003: real time    0.0003
    --------------------------------------------
      LOOP:  cpu time    3.6577: real time    3.6584

 eigenvalue-minimisations  : 16289
 total energy-change (2. order) : 0.1612435E-05  (-0.2566164E-06)
 number of electron      60.0000134 magnetization 
 augmentation part       18.6121147 magnetization 

 eigenvalues of (default mixing * dielectric matrix)
  average eigenvalue GAMMA=   1.7218
  2.3204  1.4225  1.4225

  free energy =  -0.365615909108E+02  energy without entropy=  -0.365594885272E+02


--------------------------------------------------------------------------------------------------------




--------------------------------------- Iteration      4(   5)  ---------------------------------------


    POTLOK:  cpu time    0.0018: real time    0.0030
    SETDIJ:  cpu time    0.0018: real time    0.0018
    EDDIAG:  cpu time    1.6639: real time    1.6643
  RMM-DIIS:  cpu time    1.4144: real time    1.4146
    ORTHCH:  cpu time    0.1404: real time    0.1404
       DOS:  cpu time    0.0108: real time    0.0108
    --------------------------------------------
      LOOP:  cpu time    3.2332: real time    3.2350

 eigenvalue-minimisations  : 14279
 total energy-change (2. order) :-0.1742592E-08  (-0.5265672E-07)
 number of electron      60.0000134 magnetization 
 augmentation part       18.6121147 magnetization 

  free energy =  -0.365615909126E+02  energy without entropy=  -0.365594887330E+02


--------------------------------------------------------------------------------------------------------




------------------------ aborting loop because EDIFF is reached ----------------------------------------


    CHARGE:  cpu time    0.2323: real time    0.2323
    FORLOC:  cpu time    0.0001: real time    0.0001
    FORNL :  cpu time    0.6687: real time    0.6689
    STRESS:  cpu time    1.2024: real time    1.2026
    FORCOR:  cpu time    0.0015: real time    0.0015
    FORHAR:  cpu time    0.0006: real time    0.0006
    MIXING:  cpu time    0.0002: real time    0.0002
    OFIELD:  cpu time    0.0000: real time    0.0000

  FORCE on cell =-STRESS in cart. coord.  units (eV):
  Direction    XX          YY          ZZ          XY          YZ          ZX
  --------------------------------------------------------------------------------------
  Alpha Z   362.67203   362.67203   362.67203
  Ewald   -1660.97623 -1688.04838 -1630.64247     0.00000    -0.00000    -9.16562
  Hartree   129.74539   121.90835   138.81505     0.00000    -0.00000    -2.88486
  E(xc)    -266.92963  -267.04173  -266.81838    -0.00000     0.00000    -0.04532
  Local     214.84503   245.34956   179.85340     0.00000     0.00000    10.61046
  n-local    30.56335    28.21075    33.34783     0.92300    -0.85165    -0.70073
  augment   315.95377   318.08925   313.74927     0.00000     0.00000     0.68800
  Kinetic   872.97566   877.04726   869.00005     1.74765     0.25362     1.33357
  Fock        0.00000     0.00000     0.00000     0.00000     0.00000     0.00000
  -------------------------------------------------------------------------------------
  Total      -1.15063    -1.81290    -0.02323     0.00000     0.00000    -0.16449
  in kB     -19.53749   -30.78269    -0.39437     0.00000     0.00000    -2.79300
  external pressure =      -16.90 kB  Pullay stress =        0.00 kB



--------------------------------------------------------------------------------------------------------



  FREE ENERGIE OF THE ION-ELECTRON SYSTEM (eV)
  ---------------------------------------------------
  free  energy   TOTEN  =       -36.56159091 eV

  energy  without entropy=      -36.55948873  energy(sigma->0) =      -36.56089019
 
 d Force = 0.0000000E+00[ 0.000E+00, 0.000E+00]  d Energy = 0.5505841E-05-0.551E-05
 d Force = 0.0000000E+00[ 0.000E+00, 0.000E+00]  d Ewald  =-0.6342909E+00 0.634E+00


--------------------------------------------------------------------------------------------------------


    POTLOK:  cpu time    0.0036: real time    0.0036


--------------------------------------------------------------------------------------------------------


 stress matrix after NEB project (eV)
     -1.15063      0.00000     -0.16449
      0.00000     -1.81290      0.00000
     -0.16449      0.00000     -0.02323
  FORCES: max atom, RMS     0.000000    0.000000
  FORCE total and by dimension    0.000000    0.000000
  Stress total and by dimension    2.159913    1.812902
 Quasi-Newton relaxation of ions (Broydens 2nd method)
  g(Force)  = 0.674E-44   g(Stress)= 0.867E-06

 retain information from N=  1 steps
 eigenvalues of (default step * inverse Hessian matrix)
  average eigenvalue of G=   2.4081
 eigenvalue spectrum of G is  2.4081


--------------------------------------------------------------------------------------------------------


  
 reached required accuracy - stopping structural energy minimisation
     LOOP+:  cpu time   33.3801: real time   33.3916
    4ORBIT:  cpu time    0.0000: real time    0.0000

 total amount of memory used by VASP MPI-rank0    64440. kBytes
=======================================================================

   base      :      30000. kBytes
   nonl-proj :      19914. kBytes
   fftplans  :        257. kBytes
   grid      :        327. kBytes
   one-center:         15. kBytes
   wavefun   :      13927. kBytes
 
  
  
 General timing and accounting informations for this job:
 ========================================================
  
                  Total CPU time used (sec):      210.297
                            User time (sec):      168.112
                          System time (sec):       42.184
                         Elapsed time (sec):      210.396
  
                   Maximum memory used (kb):      145212.
                   Average memory used (kb):           0.
  
                          Minor page faults:       100424
                          Major page faults:            0
                 Voluntary context switches:     13418003
