       N       E                     dE             d eps       ncg     rms          rms(c)
DAV:   1     0.428764129020E+04    0.42876E+04   -0.26580E+05  3920   0.127E+03
DAV:   2    -0.508727602069E+02   -0.43385E+04   -0.40066E+04  4640   0.276E+02
DAV:   3    -0.388622011078E+03   -0.33775E+03   -0.30340E+03  4576   0.702E+01
DAV:   4    -0.406081430004E+03   -0.17459E+02   -0.16344E+02  5112   0.144E+01
DAV:   5    -0.406579318144E+03   -0.49789E+00   -0.49348E+00  5272   0.252E+00    0.804E+01
RMM:   6    -0.394286685969E+03    0.12293E+02   -0.76684E+01  3937   0.139E+01    0.614E+01
RMM:   7    -0.484982636462E+03   -0.90696E+02   -0.15729E+02  3946   0.139E+01    0.746E+01
RMM:   8    -0.531352065498E+03   -0.46369E+02   -0.14043E+02  3935   0.121E+01    0.818E+01
RMM:   9    -0.406313184233E+03    0.12504E+03   -0.58813E+01  3939   0.844E+00    0.410E+01
RMM:  10    -0.399867255376E+03    0.64459E+01   -0.39465E+01  3923   0.776E+00    0.369E+01
RMM:  11    -0.385562901534E+03    0.14304E+02   -0.97446E+00  3926   0.387E+00    0.223E+01
RMM:  12    -0.384239705683E+03    0.13232E+01   -0.50544E+00  3932   0.281E+00    0.212E+01
RMM:  13    -0.381245501822E+03    0.29942E+01   -0.19121E+00  3932   0.164E+00    0.129E+01
RMM:  14    -0.380196703722E+03    0.10488E+01   -0.10614E+00  3936   0.120E+00    0.943E+00
RMM:  15    -0.379830581320E+03    0.36612E+00   -0.24879E-01  3951   0.657E-01    0.611E+00
RMM:  16    -0.379774257044E+03    0.56324E-01   -0.60114E-02  3962   0.312E-01    0.480E+00
RMM:  17    -0.379761866638E+03    0.12390E-01   -0.48887E-02  3932   0.284E-01    0.416E+00
RMM:  18    -0.379731922964E+03    0.29944E-01   -0.88603E-02  3930   0.405E-01    0.270E+00
RMM:  19    -0.379763678883E+03   -0.31756E-01   -0.98756E-02  3934   0.401E-01    0.304E+00
RMM:  20    -0.379702616562E+03    0.61062E-01   -0.40336E-02  3936   0.255E-01    0.136E+00
RMM:  21    -0.379692522683E+03    0.10094E-01   -0.70864E-03  3934   0.112E-01    0.851E-01
RMM:  22    -0.379690302751E+03    0.22199E-02   -0.21388E-03  3928   0.588E-02    0.703E-01
RMM:  23    -0.379688147246E+03    0.21555E-02   -0.22701E-03  3929   0.611E-02    0.624E-01
RMM:  24    -0.379685736782E+03    0.24105E-02   -0.20632E-03  3935   0.557E-02    0.469E-01
RMM:  25    -0.379684402330E+03    0.13345E-02   -0.12685E-03  3936   0.444E-02    0.246E-01
RMM:  26    -0.379684355316E+03    0.47015E-04   -0.33477E-04  3931   0.239E-02    0.186E-01
RMM:  27    -0.379684383543E+03   -0.28227E-04   -0.15747E-04  3942   0.151E-02    0.153E-01
RMM:  28    -0.379684489798E+03   -0.10626E-03   -0.15578E-04  3929   0.153E-02    0.173E-01
RMM:  29    -0.379684484091E+03    0.57076E-05   -0.12840E-04  3935   0.129E-02    0.121E-01
RMM:  30    -0.379684508434E+03   -0.24344E-04   -0.25133E-05  4145   0.540E-03    0.825E-02
RMM:  31    -0.379684680959E+03   -0.17253E-03   -0.36777E-05  3922   0.783E-03    0.499E-02
RMM:  32    -0.379684768347E+03   -0.87387E-04   -0.14245E-05  3791   0.513E-03    0.295E-02
RMM:  33    -0.379684882552E+03   -0.11420E-03   -0.86983E-06  3381   0.391E-03    0.321E-02
RMM:  34    -0.379684986489E+03   -0.10394E-03   -0.94377E-06  3306   0.326E-03    0.140E-02
RMM:  35    -0.379685083664E+03   -0.97176E-04   -0.76012E-06  3099   0.291E-03    0.135E-02
RMM:  36    -0.379685150101E+03   -0.66436E-04   -0.37817E-06  2626   0.188E-03    0.124E-02
RMM:  37    -0.379685195189E+03   -0.45088E-04   -0.19855E-06  2393   0.136E-03    0.923E-03
RMM:  38    -0.379685250693E+03   -0.55504E-04   -0.38242E-06  2682   0.166E-03    0.569E-03
RMM:  39    -0.379685266524E+03   -0.15831E-04   -0.82151E-07  2212   0.963E-04    0.405E-03
RMM:  40    -0.379685287389E+03   -0.20865E-04   -0.70274E-07  2082   0.750E-04    0.368E-03
RMM:  41    -0.379685298402E+03   -0.11014E-04   -0.40920E-07  1535   0.579E-04    0.356E-03
RMM:  42    -0.379685309994E+03   -0.11591E-04   -0.49936E-07  1606   0.570E-04    0.126E-03
RMM:  43    -0.379685317162E+03   -0.71689E-05   -0.34040E-07  1507   0.519E-04    0.111E-03
RMM:  44    -0.379685327312E+03   -0.10150E-04   -0.79185E-07  2127   0.820E-04    0.199E-02
RMM:  45    -0.379685330574E+03   -0.32614E-05   -0.40262E-07  2007   0.790E-04    0.261E-02
RMM:  46    -0.379685336932E+03   -0.63577E-05   -0.43565E-07  1940   0.670E-04    0.363E-02
RMM:  47    -0.379685334736E+03    0.21953E-05   -0.77541E-08  1182   0.448E-04    0.315E-02
RMM:  48    -0.379685332296E+03    0.24408E-05   -0.12920E-07  1497   0.443E-04    0.229E-02
RMM:  49    -0.379685331390E+03    0.90588E-06   -0.27716E-07  1919   0.595E-04
   1 F= -.41372948E+03 E0= -.41336161E+03  d E =-.413729E+03
       N       E                     dE             d eps       ncg     rms          rms(c)
DAV:   1    -0.379682927626E+03    0.24047E-02   -0.23005E+00  3992   0.198E+00    0.258E-01
RMM:   2    -0.379690200908E+03   -0.72733E-02   -0.30674E-02  3925   0.309E-01    0.831E-01
RMM:   3    -0.379686893851E+03    0.33071E-02   -0.29701E-03  3977   0.828E-02    0.555E-01
RMM:   4    -0.379685574059E+03    0.13198E-02   -0.73175E-04  3961   0.333E-02    0.284E-01
RMM:   5    -0.379686012762E+03   -0.43870E-03   -0.10730E-03  3947   0.459E-02    0.355E-01
RMM:   6    -0.379685368569E+03    0.64419E-03   -0.36171E-04  3940   0.263E-02    0.199E-01
RMM:   7    -0.379685651033E+03   -0.28246E-03   -0.49855E-04  3929   0.280E-02    0.260E-01
RMM:   8    -0.379685455898E+03    0.19513E-03   -0.26532E-04  3936   0.233E-02    0.136E-01
RMM:   9    -0.379685344380E+03    0.11152E-03   -0.61535E-05  3938   0.112E-02    0.851E-02
RMM:  10    -0.379685308160E+03    0.36220E-04   -0.22035E-05  3928   0.566E-03    0.542E-02
RMM:  11    -0.379685286181E+03    0.21979E-04   -0.13891E-05  3918   0.480E-03    0.181E-02
RMM:  12    -0.379685284779E+03    0.14016E-05   -0.58197E-06  3413   0.322E-03    0.131E-02
RMM:  13    -0.379685284515E+03    0.26434E-06   -0.19311E-06  2153   0.199E-03
   2 F= -.41375015E+03 E0= -.41338246E+03  d E =-.206692E-01
       N       E                     dE             d eps       ncg     rms          rms(c)
DAV:   1    -0.379638106537E+03    0.47178E-01   -0.33852E+01  3936   0.761E+00    0.930E-01
RMM:   2    -0.379761947118E+03   -0.12384E+00   -0.45316E-01  3941   0.118E+00    0.322E+00
RMM:   3    -0.379704407280E+03    0.57540E-01   -0.43247E-02  3989   0.288E-01    0.204E+00
RMM:   4    -0.379677728542E+03    0.26679E-01   -0.11850E-02  3940   0.138E-01    0.881E-01
RMM:   5    -0.379680309237E+03   -0.25807E-02   -0.12797E-02  3949   0.167E-01    0.106E+00
RMM:   6    -0.379674562583E+03    0.57467E-02   -0.38357E-03  3942   0.897E-02    0.564E-01
RMM:   7    -0.379679459545E+03   -0.48970E-02   -0.61141E-03  3931   0.982E-02    0.998E-01
RMM:   8    -0.379675674400E+03    0.37851E-02   -0.34464E-03  3941   0.822E-02    0.494E-01
RMM:   9    -0.379673946014E+03    0.17284E-02   -0.80318E-04  3936   0.373E-02    0.288E-01
RMM:  10    -0.379673539804E+03    0.40621E-03   -0.27704E-04  3945   0.204E-02    0.179E-01
RMM:  11    -0.379673316545E+03    0.22326E-03   -0.15722E-04  3934   0.162E-02    0.637E-02
RMM:  12    -0.379673297232E+03    0.19313E-04   -0.68524E-05  3943   0.110E-02    0.451E-02
RMM:  13    -0.379673289744E+03    0.74882E-05   -0.21970E-05  3941   0.599E-03    0.406E-02
RMM:  14    -0.379673281012E+03    0.87319E-05   -0.15288E-05  3908   0.496E-03    0.260E-02
RMM:  15    -0.379673278959E+03    0.20528E-05   -0.56066E-06  3338   0.308E-03    0.117E-02
RMM:  16    -0.379673279952E+03   -0.99251E-06   -0.23805E-06  2183   0.225E-03
   3 F= -.41381797E+03 E0= -.41345152E+03  d E =-.678217E-01
       N       E                     dE             d eps       ncg     rms          rms(c)
DAV:   1    -0.379567478001E+03    0.10580E+00   -0.61377E+01  3920   0.104E+01    0.126E+00
RMM:   2    -0.379835935329E+03   -0.26846E+00   -0.87317E-01  3977   0.162E+00    0.478E+00
RMM:   3    -0.379684431297E+03    0.15150E+00   -0.81746E-02  3994   0.388E-01    0.248E+00
RMM:   4    -0.379650021931E+03    0.34409E-01   -0.25729E-02  3943   0.202E-01    0.148E+00
RMM:   5    -0.379644307006E+03    0.57149E-02   -0.21443E-02  3956   0.221E-01    0.128E+00
RMM:   6    -0.379637197569E+03    0.71094E-02   -0.58088E-03  3947   0.113E-01    0.676E-01
RMM:   7    -0.379646438021E+03   -0.92405E-02   -0.10067E-02  3931   0.126E-01    0.134E+00
RMM:   8    -0.379638733072E+03    0.77049E-02   -0.59906E-03  3949   0.105E-01    0.651E-01
RMM:   9    -0.379635660395E+03    0.30727E-02   -0.12999E-03  3936   0.460E-02    0.365E-01
RMM:  10    -0.379634943282E+03    0.71711E-03   -0.51807E-04  3952   0.273E-02    0.210E-01
RMM:  11    -0.379634643204E+03    0.30008E-03   -0.24220E-04  3934   0.202E-02    0.650E-02
RMM:  12    -0.379634637395E+03    0.58088E-05   -0.81806E-05  3948   0.122E-02    0.582E-02
RMM:  13    -0.379634618982E+03    0.18413E-04   -0.40278E-05  3929   0.810E-03    0.433E-02
RMM:  14    -0.379634607469E+03    0.11513E-04   -0.23347E-05  3914   0.616E-03    0.228E-02
RMM:  15    -0.379634609644E+03   -0.21755E-05   -0.63073E-06  3476   0.330E-03    0.245E-02
RMM:  16    -0.379634608268E+03    0.13763E-05   -0.28079E-06  2373   0.238E-03    0.120E-02
RMM:  17    -0.379634607857E+03    0.41071E-06   -0.99331E-07  2102   0.158E-03
   4 F= -.41388719E+03 E0= -.41352337E+03  d E =-.692203E-01
       N       E                     dE             d eps       ncg     rms          rms(c)
DAV:   1    -0.379480157105E+03    0.15445E+00   -0.73612E+01  3920   0.115E+01    0.144E+00
RMM:   2    -0.379843334066E+03   -0.36318E+00   -0.11214E+00  3979   0.181E+00    0.562E+00
RMM:   3    -0.379626723003E+03    0.21661E+00   -0.10500E-01  3981   0.437E-01    0.272E+00
RMM:   4    -0.379592798453E+03    0.33925E-01   -0.37683E-02  3939   0.238E-01    0.198E+00
RMM:   5    -0.379576975559E+03    0.15823E-01   -0.26287E-02  3957   0.249E-01    0.143E+00
RMM:   6    -0.379569153800E+03    0.78218E-02   -0.69932E-03  3944   0.121E-01    0.798E-01
RMM:   7    -0.379579056866E+03   -0.99031E-02   -0.11217E-02  3931   0.133E-01    0.144E+00
RMM:   8    -0.379570227945E+03    0.88289E-02   -0.71879E-03  3948   0.112E-01    0.716E-01
RMM:   9    -0.379566607184E+03    0.36208E-02   -0.16465E-03  3936   0.519E-02    0.395E-01
RMM:  10    -0.379565784987E+03    0.82220E-03   -0.66575E-04  3945   0.307E-02    0.242E-01
RMM:  11    -0.379565367379E+03    0.41761E-03   -0.30365E-04  3933   0.223E-02    0.727E-02
RMM:  12    -0.379565366367E+03    0.10120E-05   -0.65311E-05  3978   0.109E-02    0.639E-02
RMM:  13    -0.379565347824E+03    0.18543E-04   -0.54016E-05  3932   0.946E-03    0.501E-02
RMM:  14    -0.379565331063E+03    0.16761E-04   -0.26511E-05  3930   0.660E-03    0.251E-02
RMM:  15    -0.379565335907E+03   -0.48439E-05   -0.72581E-06  3724   0.360E-03    0.313E-02
RMM:  16    -0.379565332654E+03    0.32526E-05   -0.26733E-06  2389   0.237E-03    0.136E-02
RMM:  17    -0.379565332233E+03    0.42173E-06   -0.10630E-06  2106   0.156E-03
   5 F= -.41393655E+03 E0= -.41357663E+03  d E =-.493643E-01
       N       E                     dE             d eps       ncg     rms          rms(c)
DAV:   1    -0.379470506204E+03    0.94826E-01   -0.29660E+01  3920   0.743E+00    0.969E-01
RMM:   2    -0.379623824920E+03   -0.15332E+00   -0.48901E-01  3985   0.117E+00    0.365E+00
RMM:   3    -0.379534377562E+03    0.89447E-01   -0.44749E-02  3981   0.285E-01    0.181E+00
RMM:   4    -0.379523260897E+03    0.11117E-01   -0.18823E-02  3941   0.165E-01    0.158E+00
RMM:   5    -0.379512529545E+03    0.10731E-01   -0.11448E-02  3952   0.181E-01    0.961E-01
RMM:   6    -0.379509838318E+03    0.26912E-02   -0.31976E-03  3941   0.808E-02    0.592E-01
RMM:   7    -0.379513246674E+03   -0.34084E-02   -0.44765E-03  3934   0.846E-02    0.900E-01
RMM:   8    -0.379509900083E+03    0.33466E-02   -0.30306E-03  3949   0.715E-02    0.471E-01
RMM:   9    -0.379508414160E+03    0.14859E-02   -0.80317E-04  3938   0.369E-02    0.254E-01
RMM:  10    -0.379508094059E+03    0.32010E-03   -0.25599E-04  3946   0.194E-02    0.159E-01
RMM:  11    -0.379507904651E+03    0.18941E-03   -0.13538E-04  3931   0.147E-02    0.498E-02
RMM:  12    -0.379507901694E+03    0.29575E-05   -0.41533E-05  3952   0.825E-03    0.432E-02
RMM:  13    -0.379507900100E+03    0.15941E-05   -0.20658E-05  3930   0.587E-03    0.402E-02
RMM:  14    -0.379507888061E+03    0.12039E-04   -0.13570E-05  3911   0.479E-03    0.147E-02
RMM:  15    -0.379507888972E+03   -0.91069E-06   -0.26324E-06  2380   0.231E-03
   6 F= -.41395394E+03 E0= -.41359692E+03  d E =-.173850E-01
       N       E                     dE             d eps       ncg     rms          rms(c)
DAV:   1    -0.379445342523E+03    0.62546E-01   -0.13594E+01  3920   0.514E+00    0.706E-01
RMM:   2    -0.379518128577E+03   -0.72786E-01   -0.24695E-01  3989   0.801E-01    0.250E+00
RMM:   3    -0.379477993781E+03    0.40135E-01   -0.22104E-02  3977   0.199E-01    0.131E+00
RMM:   4    -0.379474271130E+03    0.37227E-02   -0.10846E-02  3937   0.123E-01    0.131E+00
RMM:   5    -0.379466508160E+03    0.77630E-02   -0.57940E-03  3956   0.138E-01    0.711E-01
RMM:   6    -0.379465487131E+03    0.10210E-02   -0.17974E-03  3939   0.602E-02    0.486E-01
RMM:   7    -0.379466646950E+03   -0.11598E-02   -0.20684E-03  3933   0.580E-02    0.606E-01
RMM:   8    -0.379465234189E+03    0.14128E-02   -0.14862E-03  3945   0.496E-02    0.336E-01
RMM:   9    -0.379464521127E+03    0.71306E-03   -0.46024E-04  3938   0.283E-02    0.172E-01
RMM:  10    -0.379464392635E+03    0.12849E-03   -0.11634E-04  3947   0.133E-02    0.110E-01
RMM:  11    -0.379464308956E+03    0.83680E-04   -0.61740E-05  3930   0.991E-03    0.449E-02
RMM:  12    -0.379464298385E+03    0.10570E-04   -0.27068E-05  3930   0.648E-03    0.321E-02
RMM:  13    -0.379464300513E+03   -0.21274E-05   -0.76321E-06  3717   0.350E-03    0.349E-02
RMM:  14    -0.379464296361E+03    0.41514E-05   -0.71373E-06  3813   0.347E-03    0.231E-02
RMM:  15    -0.379464292923E+03    0.34381E-05   -0.30098E-06  2467   0.238E-03    0.761E-03
RMM:  16    -0.379464293341E+03   -0.41740E-06   -0.87646E-07  2094   0.142E-03
   7 F= -.41396000E+03 E0= -.41360507E+03  d E =-.605798E-02
       N       E                     dE             d eps       ncg     rms          rms(c)
DAV:   1    -0.379452722777E+03    0.11570E-01   -0.10168E+00  3936   0.148E+00    0.236E-01
RMM:   2    -0.379457915115E+03   -0.51923E-02   -0.23297E-02  3990   0.222E-01    0.643E-01
RMM:   3    -0.379456989556E+03    0.92556E-03   -0.22756E-03  3971   0.631E-02    0.554E-01
RMM:   4    -0.379456079153E+03    0.91040E-03   -0.14761E-03  3939   0.429E-02    0.523E-01
RMM:   5    -0.379454693802E+03    0.13854E-02   -0.59024E-04  3958   0.488E-02    0.240E-01
RMM:   6    -0.379454692959E+03    0.84368E-06   -0.25222E-04  3934   0.224E-02    0.200E-01
RMM:   7    -0.379454685731E+03    0.72276E-05   -0.17555E-04  3937   0.173E-02    0.172E-01
RMM:   8    -0.379454609933E+03    0.75798E-04   -0.12846E-04  3936   0.144E-02    0.108E-01
RMM:   9    -0.379454548888E+03    0.61045E-04   -0.52220E-05  3935   0.958E-03    0.499E-02
RMM:  10    -0.379454539838E+03    0.90503E-05   -0.10875E-05  3890   0.430E-03    0.266E-02
RMM:  11    -0.379454536515E+03    0.33235E-05   -0.38378E-06  2714   0.259E-03    0.150E-02
RMM:  12    -0.379454534899E+03    0.16159E-05   -0.20251E-06  2201   0.193E-03    0.639E-03
RMM:  13    -0.379454535281E+03   -0.38232E-06   -0.99751E-07  2107   0.146E-03
   8 F= -.41396172E+03 E0= -.41360732E+03  d E =-.172083E-02
       N       E                     dE             d eps       ncg     rms          rms(c)
DAV:   1    -0.379429719828E+03    0.24815E-01   -0.37271E+00  3920   0.288E+00    0.475E-01
RMM:   2    -0.379446344197E+03   -0.16624E-01   -0.89697E-02  3982   0.421E-01    0.109E+00
RMM:   3    -0.379448677132E+03   -0.23329E-02   -0.92466E-03  3972   0.127E-01    0.119E+00
RMM:   4    -0.379444239014E+03    0.44381E-02   -0.60467E-03  3937   0.866E-02    0.109E+00
RMM:   5    -0.379437352280E+03    0.68867E-02   -0.21766E-03  3952   0.902E-02    0.457E-01
RMM:   6    -0.379437487653E+03   -0.13537E-03   -0.10837E-03  3930   0.461E-02    0.407E-01
RMM:   7    -0.379437275998E+03    0.21165E-03   -0.64338E-04  3934   0.331E-02    0.317E-01
RMM:   8    -0.379437031714E+03    0.24428E-03   -0.47157E-04  3934   0.275E-02    0.210E-01
RMM:   9    -0.379436800135E+03    0.23158E-03   -0.19911E-04  3935   0.187E-02    0.945E-02
RMM:  10    -0.379436764653E+03    0.35481E-04   -0.41661E-05  3930   0.855E-03    0.458E-02
RMM:  11    -0.379436756016E+03    0.86370E-05   -0.13853E-05  3919   0.479E-03    0.275E-02
RMM:  12    -0.379436750099E+03    0.59168E-05   -0.63418E-06  3440   0.302E-03    0.104E-02
RMM:  13    -0.379436751042E+03   -0.94222E-06   -0.26658E-06  2327   0.227E-03
   9 F= -.41396405E+03 E0= -.41361059E+03  d E =-.233757E-02
       N       E                     dE             d eps       ncg     rms          rms(c)
DAV:   1    -0.379437763984E+03   -0.10139E-02   -0.73629E-02  4000   0.398E-01    0.604E-02
RMM:   2    -0.379438359462E+03   -0.59548E-03   -0.17467E-03  3990   0.591E-02    0.253E-01
RMM:   3    -0.379438100259E+03    0.25920E-03   -0.25568E-04  3961   0.229E-02    0.188E-01
RMM:   4    -0.379437903304E+03    0.19696E-03   -0.89679E-05  3957   0.155E-02    0.629E-02
RMM:   5    -0.379437890925E+03    0.12379E-04   -0.23085E-05  3942   0.698E-03    0.400E-02
RMM:   6    -0.379437890525E+03    0.39984E-06   -0.12710E-05  3913   0.450E-03    0.357E-02
RMM:   7    -0.379437892980E+03   -0.24548E-05   -0.96227E-06  3873   0.431E-03    0.247E-02
RMM:   8    -0.379437894274E+03   -0.12939E-05   -0.73396E-06  3764   0.347E-03    0.218E-02
RMM:   9    -0.379437892295E+03    0.19786E-05   -0.34591E-06  2557   0.260E-03    0.127E-02
RMM:  10    -0.379437891577E+03    0.71848E-06   -0.86459E-07  2047   0.138E-03
  10 F= -.41396469E+03 E0= -.41361115E+03  d E =-.633235E-03
       N       E                     dE             d eps       ncg     rms          rms(c)
DAV:   1    -0.379437181626E+03    0.71067E-03   -0.16609E+00  3920   0.193E+00    0.287E-01
RMM:   2    -0.379447946306E+03   -0.10765E-01   -0.40691E-02  3985   0.275E-01    0.987E-01
RMM:   3    -0.379446251307E+03    0.16950E-02   -0.53729E-03  3966   0.101E-01    0.924E-01
RMM:   4    -0.379440970373E+03    0.52809E-02   -0.20151E-03  3949   0.732E-02    0.328E-01
RMM:   5    -0.379440332730E+03    0.63764E-03   -0.52004E-04  3954   0.332E-02    0.148E-01
RMM:   6    -0.379440396299E+03   -0.63568E-04   -0.35166E-04  3934   0.255E-02    0.149E-01
RMM:   7    -0.379440359932E+03    0.36367E-04   -0.16200E-04  3939   0.165E-02    0.102E-01
RMM:   8    -0.379440385734E+03   -0.25803E-04   -0.13655E-04  3937   0.152E-02    0.906E-02
RMM:   9    -0.379440341733E+03    0.44001E-04   -0.55119E-05  3934   0.982E-03    0.333E-02
RMM:  10    -0.379440336295E+03    0.54379E-05   -0.83121E-06  3850   0.403E-03    0.236E-02
RMM:  11    -0.379440334741E+03    0.15546E-05   -0.24635E-06  2337   0.209E-03    0.171E-02
RMM:  12    -0.379440333250E+03    0.14908E-05   -0.23519E-06  2203   0.215E-03    0.787E-03
RMM:  13    -0.379440333073E+03    0.17736E-06   -0.11901E-06  2055   0.165E-03
  11 F= -.41396694E+03 E0= -.41361321E+03  d E =-.225273E-02
       N       E                     dE             d eps       ncg     rms          rms(c)
DAV:   1    -0.379443437547E+03   -0.31043E-02   -0.62378E-01  3920   0.117E+00    0.165E-01
RMM:   2    -0.379448672254E+03   -0.52347E-02   -0.14633E-02  3997   0.173E-01    0.714E-01
RMM:   3    -0.379445469881E+03    0.32024E-02   -0.17935E-03  3972   0.599E-02    0.403E-01
RMM:   4    -0.379444790679E+03    0.67920E-03   -0.67947E-04  3942   0.401E-02    0.204E-01
RMM:   5    -0.379444527397E+03    0.26328E-03   -0.17016E-04  3963   0.211E-02    0.716E-02
RMM:   6    -0.379444576617E+03   -0.49220E-04   -0.11338E-04  3932   0.145E-02    0.907E-02
RMM:   7    -0.379444581750E+03   -0.51335E-05   -0.60217E-05  3945   0.100E-02    0.838E-02
RMM:   8    -0.379444578506E+03    0.32443E-05   -0.51811E-05  3932   0.928E-03    0.684E-02
RMM:   9    -0.379444557396E+03    0.21110E-04   -0.22890E-05  3924   0.639E-03    0.350E-02
RMM:  10    -0.379444552005E+03    0.53916E-05   -0.47103E-06  3085   0.290E-03    0.186E-02
RMM:  11    -0.379444549638E+03    0.23666E-05   -0.18307E-06  2148   0.184E-03    0.897E-03
RMM:  12    -0.379444549534E+03    0.10442E-06   -0.10696E-06  2079   0.156E-03
  12 F= -.41396795E+03 E0= -.41361398E+03  d E =-.101343E-02
       N       E                     dE             d eps       ncg     rms          rms(c)
DAV:   1    -0.379447506950E+03   -0.29573E-02   -0.72622E-01  3920   0.126E+00    0.177E-01
RMM:   2    -0.379453442747E+03   -0.59358E-02   -0.16993E-02  3999   0.186E-01    0.755E-01
RMM:   3    -0.379449990506E+03    0.34522E-02   -0.20965E-03  3968   0.644E-02    0.447E-01
RMM:   4    -0.379449087746E+03    0.90276E-03   -0.77561E-04  3944   0.430E-02    0.219E-01
RMM:   5    -0.379448783563E+03    0.30418E-03   -0.19338E-04  3957   0.226E-02    0.797E-02
RMM:   6    -0.379448836046E+03   -0.52483E-04   -0.12454E-04  3936   0.153E-02    0.973E-02
RMM:   7    -0.379448844605E+03   -0.85593E-05   -0.66991E-05  3937   0.106E-02    0.901E-02
RMM:   8    -0.379448840458E+03    0.41469E-05   -0.61289E-05  3935   0.101E-02    0.710E-02
RMM:   9    -0.379448817413E+03    0.23046E-04   -0.26953E-05  3932   0.700E-03    0.358E-02
RMM:  10    -0.379448811407E+03    0.60058E-05   -0.55063E-06  3334   0.311E-03    0.190E-02
RMM:  11    -0.379448809088E+03    0.23187E-05   -0.19149E-06  2161   0.188E-03    0.100E-02
RMM:  12    -0.379448808948E+03    0.14028E-06   -0.11159E-06  2094   0.159E-03
  13 F= -.41396877E+03 E0= -.41361455E+03  d E =-.820026E-03
       N       E                     dE             d eps       ncg     rms          rms(c)
DAV:   1    -0.379450394713E+03   -0.15856E-02   -0.18051E-01  3920   0.629E-01    0.879E-02
RMM:   2    -0.379451747338E+03   -0.13526E-02   -0.42052E-03  4008   0.927E-02    0.355E-01
RMM:   3    -0.379451080181E+03    0.66716E-03   -0.52254E-04  3966   0.317E-02    0.240E-01
RMM:   4    -0.379450787070E+03    0.29311E-03   -0.18662E-04  3947   0.213E-02    0.113E-01
RMM:   5    -0.379450705854E+03    0.81216E-04   -0.46344E-05  3960   0.111E-02    0.459E-02
RMM:   6    -0.379450726419E+03   -0.20565E-04   -0.28724E-05  3931   0.748E-03    0.550E-02
RMM:   7    -0.379450726241E+03    0.17763E-06   -0.16002E-05  3921   0.524E-03    0.402E-02
RMM:   8    -0.379450727062E+03   -0.82099E-06   -0.16048E-05  3921   0.518E-03    0.303E-02
RMM:   9    -0.379450722713E+03    0.43499E-05   -0.63578E-06  3618   0.342E-03    0.160E-02
RMM:  10    -0.379450721361E+03    0.13520E-05   -0.11763E-06  2072   0.153E-03    0.783E-03
RMM:  11    -0.379450721020E+03    0.34012E-06   -0.46132E-07  2020   0.940E-04
  14 F= -.41396908E+03 E0= -.41361474E+03  d E =-.302208E-03
