       N       E                     dE             d eps       ncg     rms          rms(c)
DAV:   1     0.381748990347E+03    0.38175E+03   -0.32232E+04 28128   0.168E+03
DAV:   2    -0.288480809144E+02   -0.41060E+03   -0.40048E+03 34332   0.341E+02
DAV:   3    -0.387292129929E+02   -0.98811E+01   -0.97180E+01 31692   0.525E+01
DAV:   4    -0.388471755963E+02   -0.11796E+00   -0.11766E+00 31440   0.581E+00
DAV:   5    -0.388488854140E+02   -0.17098E-02   -0.17095E-02 32988   0.659E-01    0.269E+01
RMM:   6    -0.367511193963E+02    0.20978E+01   -0.49339E+00 28080   0.125E+01    0.142E+01
RMM:   7    -0.365774400613E+02    0.17368E+00   -0.13916E+00 28080   0.620E+00    0.462E+00
RMM:   8    -0.365480085755E+02    0.29431E-01   -0.13477E-01 28085   0.208E+00    0.171E+00
RMM:   9    -0.365456345064E+02    0.23741E-02   -0.70514E-03 28764   0.398E-01    0.460E-02
RMM:  10    -0.365456577371E+02   -0.23231E-04   -0.21304E-04 28296   0.464E-02    0.289E-02
RMM:  11    -0.365456631280E+02   -0.53909E-05   -0.79919E-06 22031   0.123E-02    0.354E-03
RMM:  12    -0.365456628525E+02    0.27547E-06   -0.18254E-06 15366   0.721E-03
   1 F= -.36545663E+02 E0= -.36544846E+02  d E =-.365457E+02
       N       E                     dE             d eps       ncg     rms          rms(c)
DAV:   1    -0.365645036145E+02   -0.18840E-01   -0.39597E-01 29148   0.376E+00    0.653E-01
RMM:   2    -0.365544584748E+02    0.10045E-01   -0.19557E-02 28080   0.790E-01    0.252E-01
RMM:   3    -0.365535487247E+02    0.90975E-03   -0.32410E-03 28282   0.278E-01    0.141E-01
RMM:   4    -0.365535332944E+02    0.15430E-04   -0.28675E-04 28569   0.775E-02    0.150E-02
RMM:   5    -0.365535324985E+02    0.79589E-06   -0.36509E-05 28435   0.277E-02    0.834E-03
RMM:   6    -0.365535322654E+02    0.23316E-06   -0.17035E-06 15771   0.665E-03
   2 F= -.36553532E+02 E0= -.36552714E+02  d E =-.786941E-02
       N       E                     dE             d eps       ncg     rms          rms(c)
DAV:   1    -0.366171096701E+02   -0.63577E-01   -0.20549E+00 28236   0.857E+00    0.151E+00
RMM:   2    -0.365657550265E+02    0.51355E-01   -0.99303E-02 28080   0.178E+00    0.574E-01
RMM:   3    -0.365608976521E+02    0.48574E-02   -0.17172E-02 28261   0.644E-01    0.312E-01
RMM:   4    -0.365607907765E+02    0.10688E-03   -0.15506E-03 28576   0.181E-01    0.352E-02
RMM:   5    -0.365607811117E+02    0.96648E-05   -0.17538E-04 28397   0.621E-02    0.212E-02
RMM:   6    -0.365607815649E+02   -0.45317E-06   -0.96887E-06 27706   0.149E-02
   3 F= -.36560782E+02 E0= -.36559975E+02  d E =-.724930E-02
       N       E                     dE             d eps       ncg     rms          rms(c)
DAV:   1    -0.365609100028E+02   -0.12889E-03   -0.43358E-03 31176   0.393E-01    0.685E-02
RMM:   2    -0.365608016241E+02    0.10838E-03   -0.20364E-04 28080   0.809E-02    0.279E-02
RMM:   3    -0.365607900048E+02    0.11619E-04   -0.34767E-05 28248   0.290E-02    0.153E-02
RMM:   4    -0.365607882876E+02    0.17172E-05   -0.28838E-06 16669   0.806E-03    0.160E-03
RMM:   5    -0.365607882835E+02    0.41200E-08   -0.56917E-07 14304   0.383E-03
   4 F= -.36560788E+02 E0= -.36559981E+02  d E =-.671858E-05
