 vasp.5.4.4.18Apr17-6-g9f103f2a35 (build Nov 06 2023 00:46:14) complex          
  
 executed on             LinuxIFC date 2025.07.20  18:03:04
 running on   48 total cores
 distrk:  each k-point on   48 cores,    1 groups
 distr:  one band on NCORES_PER_BAND=   8 cores,    6 groups


--------------------------------------------------------------------------------------------------------


 INCAR:
 POTCAR:    PAW_PBE Pt 04Feb2005                  
 POTCAR:    PAW_PBE Pt 04Feb2005                  
  local pseudopotential read in
  partial core-charges read in
  partial kinetic energy density read in
  atomic valenz-charges read in
  non local Contribution for L=           2  read in
    real space projection operators read in
  non local Contribution for L=           2  read in
    real space projection operators read in
  non local Contribution for L=           0  read in
    real space projection operators read in
  non local Contribution for L=           0  read in
    real space projection operators read in
  non local Contribution for L=           1  read in
    real space projection operators read in
  non local Contribution for L=           1  read in
    real space projection operators read in
    PAW grid and wavefunctions read in
 
   number of l-projection  operators is LMAX  =           6
   number of lm-projection operators is LMMAX =          18
 
  PAW_PBE Pt 04Feb2005                  :
 energy of atom  1       EATOM= -729.1176
 kinetic energy error for atom=    0.0021 (will be added to EATOM!!)
 
 
 POSCAR: Pt                                      
  positions in cartesian coordinates
  No initial velocities read in
 exchange correlation table for  LEXCH =        8
   RHO(1)=    0.500       N(1)  =     2000
   RHO(2)=  100.500       N(2)  =     4000

 VTST: version 3.2, (02/03/18)

 CHAIN: initializing optimizer
 
 OPT: Using VASP QUASI-newton optimizer
 CHAIN: Read ICHAIN            0
 
 POSCAR: Pt                                      
  positions in cartesian coordinates
  No initial velocities read in
 


--------------------------------------------------------------------------------------------------------


 ion  position               nearest neighbor table
   1  0.000  0.000  0.000-   5 2.81   6 2.81   5 2.81   6 2.81   2 2.82   3 2.82   4 2.85   4 2.85
                             4 2.85   4 2.85
   2  0.667  0.000  0.333-   4 2.81   4 2.81   6 2.81   6 2.81   1 2.82   3 2.82   5 2.85   5 2.85
                             5 2.85   5 2.85
   3  0.333  0.000  0.667-   4 2.81   4 2.81   5 2.81   5 2.81   1 2.82   2 2.82   6 2.85   6 2.85
                             6 2.85   6 2.85
   4  0.500  0.500  0.000-   2 2.81   3 2.81   2 2.81   3 2.81   5 2.82   6 2.82   1 2.85   1 2.85
                             1 2.85   1 2.85
   5  0.167  0.500  0.333-   1 2.81   1 2.81   3 2.81   3 2.81   4 2.82   6 2.82   2 2.85   2 2.85
                             2 2.85   2 2.85
   6  0.833  0.500  0.667-   1 2.81   1 2.81   2 2.81   2 2.81   4 2.82   5 2.82   3 2.85   3 2.85
                             3 2.85   3 2.85
 
  LATTYP: Found a simple orthorhombic cell.
 ALAT       =     2.8052849200
 B/A-ratio  =     1.7666918233
 C/A-ratio  =     2.4494897402
  
  Lattice vectors:
  
 A1 = (   0.0000000000,  -2.8052849200,   0.0000000000)
 A2 = (  -4.9560739302,   0.0000000000,   0.0000000000)
 A3 = (   0.0000000000,   0.0000000000,  -6.8715166300)


Analysis of symmetry for initial positions (statically):
=====================================================================
 Subroutine PRICEL returns following result:
 
  LATTYP: Found a base centered monoclinic cell.
 ALAT       =     4.8697892858
 B/A-ratio  =     0.5760587893
 C/A-ratio  =     0.8255681516
 COS(beta)  =    -0.7059817993
  
  Lattice vectors:
  
 A1 = (  -0.8260123382,  -1.4026424600,  -2.2905055204)
 A2 = (  -0.8260123382,   1.4026424600,  -2.2905055204)
 A3 = (   3.3040493529,   0.0000000000,   2.2905054517)
 
   6 primitive cells build up your supercell.
 

 Routine SETGRP: Setting up the symmetry group for a 
 simple orthorhombic supercell.


 Subroutine GETGRP returns: Found  4 space group operations
 (whereof  4 operations were pure point group operations)
 out of a pool of  8 trial point group operations.


The static configuration has the point symmetry C_2h.


Analysis of symmetry for dynamics (positions and initial velocities):
=====================================================================
 Subroutine PRICEL returns following result:
 
  LATTYP: Found a base centered monoclinic cell.
 ALAT       =     4.8697892858
 B/A-ratio  =     0.5760587893
 C/A-ratio  =     0.8255681516
 COS(beta)  =    -0.7059817993
  
  Lattice vectors:
  
 A1 = (  -0.8260123382,  -1.4026424600,  -2.2905055204)
 A2 = (  -0.8260123382,   1.4026424600,  -2.2905055204)
 A3 = (   3.3040493529,   0.0000000000,   2.2905054517)
 
   6 primitive cells build up your supercell.
 

 Routine SETGRP: Setting up the symmetry group for a 
 simple orthorhombic supercell.


 Subroutine GETGRP returns: Found  4 space group operations
 (whereof  4 operations were pure point group operations)
 out of a pool of  8 trial point group operations.


The dynamic configuration has the point symmetry C_2h.


 Subroutine INISYM returns: Found  4 space group operations
 (whereof  4 operations are pure point group operations),
 and found     6 'primitive' translations

 
 
 KPOINTS: K-Spacing Value to Generate K-Mesh: 0.02

Automatic generation of k-mesh.
Space group operators:
 irot       det(A)        alpha          n_x          n_y          n_z        tau_x        tau_y        tau_z
    1     1.000000     0.000001     1.000000     0.000000     0.000000     0.000000     0.000000     0.000000
    2    -1.000000     0.000001     1.000000     0.000000     0.000000     0.000000     0.000000     0.000000
    3     1.000000   180.000000     0.000000     1.000000     0.000000     0.000000     0.000000     0.000000
    4    -1.000000   180.000000     0.000000     1.000000     0.000000     0.000000     0.000000     0.000000
 
 Subroutine IBZKPT returns following result:
 ===========================================
 
 Found    390 irreducible k-points:
 
 Following reciprocal coordinates:
            Coordinates               Weight
  0.000000  0.000000  0.000000      1.000000
  0.090909  0.000000  0.000000      2.000000
  0.181818  0.000000  0.000000      2.000000
  0.272727  0.000000  0.000000      2.000000
  0.363636  0.000000  0.000000      2.000000
  0.454545  0.000000  0.000000      2.000000
  0.000000  0.055556  0.000000      2.000000
  0.090909  0.055556  0.000000      4.000000
  0.181818  0.055556  0.000000      4.000000
  0.272727  0.055556  0.000000      4.000000
  0.363636  0.055556  0.000000      4.000000
  0.454545  0.055556  0.000000      4.000000
  0.000000  0.111111  0.000000      2.000000
  0.090909  0.111111  0.000000      4.000000
  0.181818  0.111111  0.000000      4.000000
  0.272727  0.111111  0.000000      4.000000
  0.363636  0.111111  0.000000      4.000000
  0.454545  0.111111  0.000000      4.000000
  0.000000  0.166667  0.000000      2.000000
  0.090909  0.166667  0.000000      4.000000
  0.181818  0.166667  0.000000      4.000000
  0.272727  0.166667  0.000000      4.000000
  0.363636  0.166667  0.000000      4.000000
  0.454545  0.166667  0.000000      4.000000
  0.000000  0.222222  0.000000      2.000000
  0.090909  0.222222  0.000000      4.000000
  0.181818  0.222222  0.000000      4.000000
  0.272727  0.222222  0.000000      4.000000
  0.363636  0.222222  0.000000      4.000000
  0.454545  0.222222  0.000000      4.000000
  0.000000  0.277778  0.000000      2.000000
  0.090909  0.277778  0.000000      4.000000
  0.181818  0.277778  0.000000      4.000000
  0.272727  0.277778  0.000000      4.000000
  0.363636  0.277778  0.000000      4.000000
  0.454545  0.277778  0.000000      4.000000
  0.000000  0.333333  0.000000      2.000000
  0.090909  0.333333  0.000000      4.000000
  0.181818  0.333333  0.000000      4.000000
  0.272727  0.333333  0.000000      4.000000
  0.363636  0.333333  0.000000      4.000000
  0.454545  0.333333  0.000000      4.000000
  0.000000  0.388889  0.000000      2.000000
  0.090909  0.388889  0.000000      4.000000
  0.181818  0.388889  0.000000      4.000000
  0.272727  0.388889  0.000000      4.000000
  0.363636  0.388889  0.000000      4.000000
  0.454545  0.388889  0.000000      4.000000
  0.000000  0.444444  0.000000      2.000000
  0.090909  0.444444  0.000000      4.000000
  0.181818  0.444444  0.000000      4.000000
  0.272727  0.444444  0.000000      4.000000
  0.363636  0.444444  0.000000      4.000000
  0.454545  0.444444  0.000000      4.000000
  0.000000  0.500000  0.000000      1.000000
  0.090909  0.500000  0.000000      2.000000
  0.181818  0.500000  0.000000      2.000000
  0.272727  0.500000  0.000000      2.000000
  0.363636  0.500000  0.000000      2.000000
  0.454545  0.500000  0.000000      2.000000
  0.000000  0.000000  0.142857      2.000000
  0.090909  0.000000  0.142857      2.000000
  0.181818  0.000000  0.142857      2.000000
  0.272727  0.000000  0.142857      2.000000
  0.363636  0.000000  0.142857      2.000000
  0.454545  0.000000  0.142857      2.000000
 -0.454545  0.000000  0.142857      2.000000
 -0.363636  0.000000  0.142857      2.000000
 -0.272727  0.000000  0.142857      2.000000
 -0.181818  0.000000  0.142857      2.000000
 -0.090909  0.000000  0.142857      2.000000
  0.000000  0.055556  0.142857      4.000000
  0.090909  0.055556  0.142857      4.000000
  0.181818  0.055556  0.142857      4.000000
  0.272727  0.055556  0.142857      4.000000
  0.363636  0.055556  0.142857      4.000000
  0.454545  0.055556  0.142857      4.000000
 -0.454545  0.055556  0.142857      4.000000
 -0.363636  0.055556  0.142857      4.000000
 -0.272727  0.055556  0.142857      4.000000
 -0.181818  0.055556  0.142857      4.000000
 -0.090909  0.055556  0.142857      4.000000
  0.000000  0.111111  0.142857      4.000000
  0.090909  0.111111  0.142857      4.000000
  0.181818  0.111111  0.142857      4.000000
  0.272727  0.111111  0.142857      4.000000
  0.363636  0.111111  0.142857      4.000000
  0.454545  0.111111  0.142857      4.000000
 -0.454545  0.111111  0.142857      4.000000
 -0.363636  0.111111  0.142857      4.000000
 -0.272727  0.111111  0.142857      4.000000
 -0.181818  0.111111  0.142857      4.000000
 -0.090909  0.111111  0.142857      4.000000
  0.000000  0.166667  0.142857      4.000000
  0.090909  0.166667  0.142857      4.000000
  0.181818  0.166667  0.142857      4.000000
  0.272727  0.166667  0.142857      4.000000
  0.363636  0.166667  0.142857      4.000000
  0.454545  0.166667  0.142857      4.000000
 -0.454545  0.166667  0.142857      4.000000
 -0.363636  0.166667  0.142857      4.000000
 -0.272727  0.166667  0.142857      4.000000
 -0.181818  0.166667  0.142857      4.000000
 -0.090909  0.166667  0.142857      4.000000
  0.000000  0.222222  0.142857      4.000000
  0.090909  0.222222  0.142857      4.000000
  0.181818  0.222222  0.142857      4.000000
  0.272727  0.222222  0.142857      4.000000
  0.363636  0.222222  0.142857      4.000000
  0.454545  0.222222  0.142857      4.000000
 -0.454545  0.222222  0.142857      4.000000
 -0.363636  0.222222  0.142857      4.000000
 -0.272727  0.222222  0.142857      4.000000
 -0.181818  0.222222  0.142857      4.000000
 -0.090909  0.222222  0.142857      4.000000
  0.000000  0.277778  0.142857      4.000000
  0.090909  0.277778  0.142857      4.000000
  0.181818  0.277778  0.142857      4.000000
  0.272727  0.277778  0.142857      4.000000
  0.363636  0.277778  0.142857      4.000000
  0.454545  0.277778  0.142857      4.000000
 -0.454545  0.277778  0.142857      4.000000
 -0.363636  0.277778  0.142857      4.000000
 -0.272727  0.277778  0.142857      4.000000
 -0.181818  0.277778  0.142857      4.000000
 -0.090909  0.277778  0.142857      4.000000
  0.000000  0.333333  0.142857      4.000000
  0.090909  0.333333  0.142857      4.000000
  0.181818  0.333333  0.142857      4.000000
  0.272727  0.333333  0.142857      4.000000
  0.363636  0.333333  0.142857      4.000000
  0.454545  0.333333  0.142857      4.000000
 -0.454545  0.333333  0.142857      4.000000
 -0.363636  0.333333  0.142857      4.000000
 -0.272727  0.333333  0.142857      4.000000
 -0.181818  0.333333  0.142857      4.000000
 -0.090909  0.333333  0.142857      4.000000
  0.000000  0.388889  0.142857      4.000000
  0.090909  0.388889  0.142857      4.000000
  0.181818  0.388889  0.142857      4.000000
  0.272727  0.388889  0.142857      4.000000
  0.363636  0.388889  0.142857      4.000000
  0.454545  0.388889  0.142857      4.000000
 -0.454545  0.388889  0.142857      4.000000
 -0.363636  0.388889  0.142857      4.000000
 -0.272727  0.388889  0.142857      4.000000
 -0.181818  0.388889  0.142857      4.000000
 -0.090909  0.388889  0.142857      4.000000
  0.000000  0.444444  0.142857      4.000000
  0.090909  0.444444  0.142857      4.000000
  0.181818  0.444444  0.142857      4.000000
  0.272727  0.444444  0.142857      4.000000
  0.363636  0.444444  0.142857      4.000000
  0.454545  0.444444  0.142857      4.000000
 -0.454545  0.444444  0.142857      4.000000
 -0.363636  0.444444  0.142857      4.000000
 -0.272727  0.444444  0.142857      4.000000
 -0.181818  0.444444  0.142857      4.000000
 -0.090909  0.444444  0.142857      4.000000
  0.000000  0.500000  0.142857      2.000000
  0.090909  0.500000  0.142857      2.000000
  0.181818  0.500000  0.142857      2.000000
  0.272727  0.500000  0.142857      2.000000
  0.363636  0.500000  0.142857      2.000000
  0.454545  0.500000  0.142857      2.000000
 -0.454545  0.500000  0.142857      2.000000
 -0.363636  0.500000  0.142857      2.000000
 -0.272727  0.500000  0.142857      2.000000
 -0.181818  0.500000  0.142857      2.000000
 -0.090909  0.500000  0.142857      2.000000
  0.000000  0.000000  0.285714      2.000000
  0.090909  0.000000  0.285714      2.000000
  0.181818  0.000000  0.285714      2.000000
  0.272727  0.000000  0.285714      2.000000
  0.363636  0.000000  0.285714      2.000000
  0.454545  0.000000  0.285714      2.000000
 -0.454545  0.000000  0.285714      2.000000
 -0.363636  0.000000  0.285714      2.000000
 -0.272727  0.000000  0.285714      2.000000
 -0.181818  0.000000  0.285714      2.000000
 -0.090909  0.000000  0.285714      2.000000
  0.000000  0.055556  0.285714      4.000000
  0.090909  0.055556  0.285714      4.000000
  0.181818  0.055556  0.285714      4.000000
  0.272727  0.055556  0.285714      4.000000
  0.363636  0.055556  0.285714      4.000000
  0.454545  0.055556  0.285714      4.000000
 -0.454545  0.055556  0.285714      4.000000
 -0.363636  0.055556  0.285714      4.000000
 -0.272727  0.055556  0.285714      4.000000
 -0.181818  0.055556  0.285714      4.000000
 -0.090909  0.055556  0.285714      4.000000
  0.000000  0.111111  0.285714      4.000000
  0.090909  0.111111  0.285714      4.000000
  0.181818  0.111111  0.285714      4.000000
  0.272727  0.111111  0.285714      4.000000
  0.363636  0.111111  0.285714      4.000000
  0.454545  0.111111  0.285714      4.000000
 -0.454545  0.111111  0.285714      4.000000
 -0.363636  0.111111  0.285714      4.000000
 -0.272727  0.111111  0.285714      4.000000
 -0.181818  0.111111  0.285714      4.000000
 -0.090909  0.111111  0.285714      4.000000
  0.000000  0.166667  0.285714      4.000000
  0.090909  0.166667  0.285714      4.000000
  0.181818  0.166667  0.285714      4.000000
  0.272727  0.166667  0.285714      4.000000
  0.363636  0.166667  0.285714      4.000000
  0.454545  0.166667  0.285714      4.000000
 -0.454545  0.166667  0.285714      4.000000
 -0.363636  0.166667  0.285714      4.000000
 -0.272727  0.166667  0.285714      4.000000
 -0.181818  0.166667  0.285714      4.000000
 -0.090909  0.166667  0.285714      4.000000
  0.000000  0.222222  0.285714      4.000000
  0.090909  0.222222  0.285714      4.000000
  0.181818  0.222222  0.285714      4.000000
  0.272727  0.222222  0.285714      4.000000
  0.363636  0.222222  0.285714      4.000000
  0.454545  0.222222  0.285714      4.000000
 -0.454545  0.222222  0.285714      4.000000
 -0.363636  0.222222  0.285714      4.000000
 -0.272727  0.222222  0.285714      4.000000
 -0.181818  0.222222  0.285714      4.000000
 -0.090909  0.222222  0.285714      4.000000
  0.000000  0.277778  0.285714      4.000000
  0.090909  0.277778  0.285714      4.000000
  0.181818  0.277778  0.285714      4.000000
  0.272727  0.277778  0.285714      4.000000
  0.363636  0.277778  0.285714      4.000000
  0.454545  0.277778  0.285714      4.000000
 -0.454545  0.277778  0.285714      4.000000
 -0.363636  0.277778  0.285714      4.000000
 -0.272727  0.277778  0.285714      4.000000
 -0.181818  0.277778  0.285714      4.000000
 -0.090909  0.277778  0.285714      4.000000
  0.000000  0.333333  0.285714      4.000000
  0.090909  0.333333  0.285714      4.000000
  0.181818  0.333333  0.285714      4.000000
  0.272727  0.333333  0.285714      4.000000
  0.363636  0.333333  0.285714      4.000000
  0.454545  0.333333  0.285714      4.000000
 -0.454545  0.333333  0.285714      4.000000
 -0.363636  0.333333  0.285714      4.000000
 -0.272727  0.333333  0.285714      4.000000
 -0.181818  0.333333  0.285714      4.000000
 -0.090909  0.333333  0.285714      4.000000
  0.000000  0.388889  0.285714      4.000000
  0.090909  0.388889  0.285714      4.000000
  0.181818  0.388889  0.285714      4.000000
  0.272727  0.388889  0.285714      4.000000
  0.363636  0.388889  0.285714      4.000000
  0.454545  0.388889  0.285714      4.000000
 -0.454545  0.388889  0.285714      4.000000
 -0.363636  0.388889  0.285714      4.000000
 -0.272727  0.388889  0.285714      4.000000
 -0.181818  0.388889  0.285714      4.000000
 -0.090909  0.388889  0.285714      4.000000
  0.000000  0.444444  0.285714      4.000000
  0.090909  0.444444  0.285714      4.000000
  0.181818  0.444444  0.285714      4.000000
  0.272727  0.444444  0.285714      4.000000
  0.363636  0.444444  0.285714      4.000000
  0.454545  0.444444  0.285714      4.000000
 -0.454545  0.444444  0.285714      4.000000
 -0.363636  0.444444  0.285714      4.000000
 -0.272727  0.444444  0.285714      4.000000
 -0.181818  0.444444  0.285714      4.000000
 -0.090909  0.444444  0.285714      4.000000
  0.000000  0.500000  0.285714      2.000000
  0.090909  0.500000  0.285714      2.000000
  0.181818  0.500000  0.285714      2.000000
  0.272727  0.500000  0.285714      2.000000
  0.363636  0.500000  0.285714      2.000000
  0.454545  0.500000  0.285714      2.000000
 -0.454545  0.500000  0.285714      2.000000
 -0.363636  0.500000  0.285714      2.000000
 -0.272727  0.500000  0.285714      2.000000
 -0.181818  0.500000  0.285714      2.000000
 -0.090909  0.500000  0.285714      2.000000
  0.000000  0.000000  0.428571      2.000000
  0.090909  0.000000  0.428571      2.000000
  0.181818  0.000000  0.428571      2.000000
  0.272727  0.000000  0.428571      2.000000
  0.363636  0.000000  0.428571      2.000000
  0.454545  0.000000  0.428571      2.000000
 -0.454545  0.000000  0.428571      2.000000
 -0.363636  0.000000  0.428571      2.000000
 -0.272727  0.000000  0.428571      2.000000
 -0.181818  0.000000  0.428571      2.000000
 -0.090909  0.000000  0.428571      2.000000
  0.000000  0.055556  0.428571      4.000000
  0.090909  0.055556  0.428571      4.000000
  0.181818  0.055556  0.428571      4.000000
  0.272727  0.055556  0.428571      4.000000
  0.363636  0.055556  0.428571      4.000000
  0.454545  0.055556  0.428571      4.000000
 -0.454545  0.055556  0.428571      4.000000
 -0.363636  0.055556  0.428571      4.000000
 -0.272727  0.055556  0.428571      4.000000
 -0.181818  0.055556  0.428571      4.000000
 -0.090909  0.055556  0.428571      4.000000
  0.000000  0.111111  0.428571      4.000000
  0.090909  0.111111  0.428571      4.000000
  0.181818  0.111111  0.428571      4.000000
  0.272727  0.111111  0.428571      4.000000
  0.363636  0.111111  0.428571      4.000000
  0.454545  0.111111  0.428571      4.000000
 -0.454545  0.111111  0.428571      4.000000
 -0.363636  0.111111  0.428571      4.000000
 -0.272727  0.111111  0.428571      4.000000
 -0.181818  0.111111  0.428571      4.000000
 -0.090909  0.111111  0.428571      4.000000
  0.000000  0.166667  0.428571      4.000000
  0.090909  0.166667  0.428571      4.000000
  0.181818  0.166667  0.428571      4.000000
  0.272727  0.166667  0.428571      4.000000
  0.363636  0.166667  0.428571      4.000000
  0.454545  0.166667  0.428571      4.000000
 -0.454545  0.166667  0.428571      4.000000
 -0.363636  0.166667  0.428571      4.000000
 -0.272727  0.166667  0.428571      4.000000
 -0.181818  0.166667  0.428571      4.000000
 -0.090909  0.166667  0.428571      4.000000
  0.000000  0.222222  0.428571      4.000000
  0.090909  0.222222  0.428571      4.000000
  0.181818  0.222222  0.428571      4.000000
  0.272727  0.222222  0.428571      4.000000
  0.363636  0.222222  0.428571      4.000000
  0.454545  0.222222  0.428571      4.000000
 -0.454545  0.222222  0.428571      4.000000
 -0.363636  0.222222  0.428571      4.000000
 -0.272727  0.222222  0.428571      4.000000
 -0.181818  0.222222  0.428571      4.000000
 -0.090909  0.222222  0.428571      4.000000
  0.000000  0.277778  0.428571      4.000000
  0.090909  0.277778  0.428571      4.000000
  0.181818  0.277778  0.428571      4.000000
  0.272727  0.277778  0.428571      4.000000
  0.363636  0.277778  0.428571      4.000000
  0.454545  0.277778  0.428571      4.000000
 -0.454545  0.277778  0.428571      4.000000
 -0.363636  0.277778  0.428571      4.000000
 -0.272727  0.277778  0.428571      4.000000
 -0.181818  0.277778  0.428571      4.000000
 -0.090909  0.277778  0.428571      4.000000
  0.000000  0.333333  0.428571      4.000000
  0.090909  0.333333  0.428571      4.000000
  0.181818  0.333333  0.428571      4.000000
  0.272727  0.333333  0.428571      4.000000
  0.363636  0.333333  0.428571      4.000000
  0.454545  0.333333  0.428571      4.000000
 -0.454545  0.333333  0.428571      4.000000
 -0.363636  0.333333  0.428571      4.000000
 -0.272727  0.333333  0.428571      4.000000
 -0.181818  0.333333  0.428571      4.000000
 -0.090909  0.333333  0.428571      4.000000
  0.000000  0.388889  0.428571      4.000000
  0.090909  0.388889  0.428571      4.000000
  0.181818  0.388889  0.428571      4.000000
  0.272727  0.388889  0.428571      4.000000
  0.363636  0.388889  0.428571      4.000000
  0.454545  0.388889  0.428571      4.000000
 -0.454545  0.388889  0.428571      4.000000
 -0.363636  0.388889  0.428571      4.000000
 -0.272727  0.388889  0.428571      4.000000
 -0.181818  0.388889  0.428571      4.000000
 -0.090909  0.388889  0.428571      4.000000
  0.000000  0.444444  0.428571      4.000000
  0.090909  0.444444  0.428571      4.000000
  0.181818  0.444444  0.428571      4.000000
  0.272727  0.444444  0.428571      4.000000
  0.363636  0.444444  0.428571      4.000000
  0.454545  0.444444  0.428571      4.000000
 -0.454545  0.444444  0.428571      4.000000
 -0.363636  0.444444  0.428571      4.000000
 -0.272727  0.444444  0.428571      4.000000
 -0.181818  0.444444  0.428571      4.000000
 -0.090909  0.444444  0.428571      4.000000
  0.000000  0.500000  0.428571      2.000000
  0.090909  0.500000  0.428571      2.000000
  0.181818  0.500000  0.428571      2.000000
  0.272727  0.500000  0.428571      2.000000
  0.363636  0.500000  0.428571      2.000000
  0.454545  0.500000  0.428571      2.000000
 -0.454545  0.500000  0.428571      2.000000
 -0.363636  0.500000  0.428571      2.000000
 -0.272727  0.500000  0.428571      2.000000
 -0.181818  0.500000  0.428571      2.000000
 -0.090909  0.500000  0.428571      2.000000
 
 Following cartesian coordinates:
            Coordinates               Weight
  0.000000  0.000000  0.000000      1.000000
  0.018343  0.000000  0.000000      2.000000
  0.036686  0.000000  0.000000      2.000000
  0.055029  0.000000  0.000000      2.000000
  0.073372  0.000000  0.000000      2.000000
  0.091715  0.000000  0.000000      2.000000
  0.000000  0.019804  0.000000      2.000000
  0.018343  0.019804  0.000000      4.000000
  0.036686  0.019804  0.000000      4.000000
  0.055029  0.019804  0.000000      4.000000
  0.073372  0.019804  0.000000      4.000000
  0.091715  0.019804  0.000000      4.000000
  0.000000  0.039608  0.000000      2.000000
  0.018343  0.039608  0.000000      4.000000
  0.036686  0.039608  0.000000      4.000000
  0.055029  0.039608  0.000000      4.000000
  0.073372  0.039608  0.000000      4.000000
  0.091715  0.039608  0.000000      4.000000
  0.000000  0.059412  0.000000      2.000000
  0.018343  0.059412  0.000000      4.000000
  0.036686  0.059412  0.000000      4.000000
  0.055029  0.059412  0.000000      4.000000
  0.073372  0.059412  0.000000      4.000000
  0.091715  0.059412  0.000000      4.000000
  0.000000  0.079216  0.000000      2.000000
  0.018343  0.079216  0.000000      4.000000
  0.036686  0.079216  0.000000      4.000000
  0.055029  0.079216  0.000000      4.000000
  0.073372  0.079216  0.000000      4.000000
  0.091715  0.079216  0.000000      4.000000
  0.000000  0.099019  0.000000      2.000000
  0.018343  0.099019  0.000000      4.000000
  0.036686  0.099019  0.000000      4.000000
  0.055029  0.099019  0.000000      4.000000
  0.073372  0.099019  0.000000      4.000000
  0.091715  0.099019  0.000000      4.000000
  0.000000  0.118823  0.000000      2.000000
  0.018343  0.118823  0.000000      4.000000
  0.036686  0.118823  0.000000      4.000000
  0.055029  0.118823  0.000000      4.000000
  0.073372  0.118823  0.000000      4.000000
  0.091715  0.118823  0.000000      4.000000
  0.000000  0.138627  0.000000      2.000000
  0.018343  0.138627  0.000000      4.000000
  0.036686  0.138627  0.000000      4.000000
  0.055029  0.138627  0.000000      4.000000
  0.073372  0.138627  0.000000      4.000000
  0.091715  0.138627  0.000000      4.000000
  0.000000  0.158431  0.000000      2.000000
  0.018343  0.158431  0.000000      4.000000
  0.036686  0.158431  0.000000      4.000000
  0.055029  0.158431  0.000000      4.000000
  0.073372  0.158431  0.000000      4.000000
  0.091715  0.158431  0.000000      4.000000
  0.000000  0.178235  0.000000      1.000000
  0.018343  0.178235  0.000000      2.000000
  0.036686  0.178235  0.000000      2.000000
  0.055029  0.178235  0.000000      2.000000
  0.073372  0.178235  0.000000      2.000000
  0.091715  0.178235  0.000000      2.000000
  0.000000  0.000000  0.020790      2.000000
  0.018343  0.000000  0.020790      2.000000
  0.036686  0.000000  0.020790      2.000000
  0.055029  0.000000  0.020790      2.000000
  0.073372  0.000000  0.020790      2.000000
  0.091715  0.000000  0.020790      2.000000
 -0.091715  0.000000  0.020790      2.000000
 -0.073372  0.000000  0.020790      2.000000
 -0.055029  0.000000  0.020790      2.000000
 -0.036686  0.000000  0.020790      2.000000
 -0.018343  0.000000  0.020790      2.000000
  0.000000  0.019804  0.020790      4.000000
  0.018343  0.019804  0.020790      4.000000
  0.036686  0.019804  0.020790      4.000000
  0.055029  0.019804  0.020790      4.000000
  0.073372  0.019804  0.020790      4.000000
  0.091715  0.019804  0.020790      4.000000
 -0.091715  0.019804  0.020790      4.000000
 -0.073372  0.019804  0.020790      4.000000
 -0.055029  0.019804  0.020790      4.000000
 -0.036686  0.019804  0.020790      4.000000
 -0.018343  0.019804  0.020790      4.000000
  0.000000  0.039608  0.020790      4.000000
  0.018343  0.039608  0.020790      4.000000
  0.036686  0.039608  0.020790      4.000000
  0.055029  0.039608  0.020790      4.000000
  0.073372  0.039608  0.020790      4.000000
  0.091715  0.039608  0.020790      4.000000
 -0.091715  0.039608  0.020790      4.000000
 -0.073372  0.039608  0.020790      4.000000
 -0.055029  0.039608  0.020790      4.000000
 -0.036686  0.039608  0.020790      4.000000
 -0.018343  0.039608  0.020790      4.000000
  0.000000  0.059412  0.020790      4.000000
  0.018343  0.059412  0.020790      4.000000
  0.036686  0.059412  0.020790      4.000000
  0.055029  0.059412  0.020790      4.000000
  0.073372  0.059412  0.020790      4.000000
  0.091715  0.059412  0.020790      4.000000
 -0.091715  0.059412  0.020790      4.000000
 -0.073372  0.059412  0.020790      4.000000
 -0.055029  0.059412  0.020790      4.000000
 -0.036686  0.059412  0.020790      4.000000
 -0.018343  0.059412  0.020790      4.000000
  0.000000  0.079216  0.020790      4.000000
  0.018343  0.079216  0.020790      4.000000
  0.036686  0.079216  0.020790      4.000000
  0.055029  0.079216  0.020790      4.000000
  0.073372  0.079216  0.020790      4.000000
  0.091715  0.079216  0.020790      4.000000
 -0.091715  0.079216  0.020790      4.000000
 -0.073372  0.079216  0.020790      4.000000
 -0.055029  0.079216  0.020790      4.000000
 -0.036686  0.079216  0.020790      4.000000
 -0.018343  0.079216  0.020790      4.000000
  0.000000  0.099019  0.020790      4.000000
  0.018343  0.099019  0.020790      4.000000
  0.036686  0.099019  0.020790      4.000000
  0.055029  0.099019  0.020790      4.000000
  0.073372  0.099019  0.020790      4.000000
  0.091715  0.099019  0.020790      4.000000
 -0.091715  0.099019  0.020790      4.000000
 -0.073372  0.099019  0.020790      4.000000
 -0.055029  0.099019  0.020790      4.000000
 -0.036686  0.099019  0.020790      4.000000
 -0.018343  0.099019  0.020790      4.000000
  0.000000  0.118823  0.020790      4.000000
  0.018343  0.118823  0.020790      4.000000
  0.036686  0.118823  0.020790      4.000000
  0.055029  0.118823  0.020790      4.000000
  0.073372  0.118823  0.020790      4.000000
  0.091715  0.118823  0.020790      4.000000
 -0.091715  0.118823  0.020790      4.000000
 -0.073372  0.118823  0.020790      4.000000
 -0.055029  0.118823  0.020790      4.000000
 -0.036686  0.118823  0.020790      4.000000
 -0.018343  0.118823  0.020790      4.000000
  0.000000  0.138627  0.020790      4.000000
  0.018343  0.138627  0.020790      4.000000
  0.036686  0.138627  0.020790      4.000000
  0.055029  0.138627  0.020790      4.000000
  0.073372  0.138627  0.020790      4.000000
  0.091715  0.138627  0.020790      4.000000
 -0.091715  0.138627  0.020790      4.000000
 -0.073372  0.138627  0.020790      4.000000
 -0.055029  0.138627  0.020790      4.000000
 -0.036686  0.138627  0.020790      4.000000
 -0.018343  0.138627  0.020790      4.000000
  0.000000  0.158431  0.020790      4.000000
  0.018343  0.158431  0.020790      4.000000
  0.036686  0.158431  0.020790      4.000000
  0.055029  0.158431  0.020790      4.000000
  0.073372  0.158431  0.020790      4.000000
  0.091715  0.158431  0.020790      4.000000
 -0.091715  0.158431  0.020790      4.000000
 -0.073372  0.158431  0.020790      4.000000
 -0.055029  0.158431  0.020790      4.000000
 -0.036686  0.158431  0.020790      4.000000
 -0.018343  0.158431  0.020790      4.000000
  0.000000  0.178235  0.020790      2.000000
  0.018343  0.178235  0.020790      2.000000
  0.036686  0.178235  0.020790      2.000000
  0.055029  0.178235  0.020790      2.000000
  0.073372  0.178235  0.020790      2.000000
  0.091715  0.178235  0.020790      2.000000
 -0.091715  0.178235  0.020790      2.000000
 -0.073372  0.178235  0.020790      2.000000
 -0.055029  0.178235  0.020790      2.000000
 -0.036686  0.178235  0.020790      2.000000
 -0.018343  0.178235  0.020790      2.000000
  0.000000  0.000000  0.041580      2.000000
  0.018343  0.000000  0.041580      2.000000
  0.036686  0.000000  0.041580      2.000000
  0.055029  0.000000  0.041580      2.000000
  0.073372  0.000000  0.041580      2.000000
  0.091715  0.000000  0.041580      2.000000
 -0.091715  0.000000  0.041580      2.000000
 -0.073372  0.000000  0.041580      2.000000
 -0.055029  0.000000  0.041580      2.000000
 -0.036686  0.000000  0.041580      2.000000
 -0.018343  0.000000  0.041580      2.000000
  0.000000  0.019804  0.041580      4.000000
  0.018343  0.019804  0.041580      4.000000
  0.036686  0.019804  0.041580      4.000000
  0.055029  0.019804  0.041580      4.000000
  0.073372  0.019804  0.041580      4.000000
  0.091715  0.019804  0.041580      4.000000
 -0.091715  0.019804  0.041580      4.000000
 -0.073372  0.019804  0.041580      4.000000
 -0.055029  0.019804  0.041580      4.000000
 -0.036686  0.019804  0.041580      4.000000
 -0.018343  0.019804  0.041580      4.000000
  0.000000  0.039608  0.041580      4.000000
  0.018343  0.039608  0.041580      4.000000
  0.036686  0.039608  0.041580      4.000000
  0.055029  0.039608  0.041580      4.000000
  0.073372  0.039608  0.041580      4.000000
  0.091715  0.039608  0.041580      4.000000
 -0.091715  0.039608  0.041580      4.000000
 -0.073372  0.039608  0.041580      4.000000
 -0.055029  0.039608  0.041580      4.000000
 -0.036686  0.039608  0.041580      4.000000
 -0.018343  0.039608  0.041580      4.000000
  0.000000  0.059412  0.041580      4.000000
  0.018343  0.059412  0.041580      4.000000
  0.036686  0.059412  0.041580      4.000000
  0.055029  0.059412  0.041580      4.000000
  0.073372  0.059412  0.041580      4.000000
  0.091715  0.059412  0.041580      4.000000
 -0.091715  0.059412  0.041580      4.000000
 -0.073372  0.059412  0.041580      4.000000
 -0.055029  0.059412  0.041580      4.000000
 -0.036686  0.059412  0.041580      4.000000
 -0.018343  0.059412  0.041580      4.000000
  0.000000  0.079216  0.041580      4.000000
  0.018343  0.079216  0.041580      4.000000
  0.036686  0.079216  0.041580      4.000000
  0.055029  0.079216  0.041580      4.000000
  0.073372  0.079216  0.041580      4.000000
  0.091715  0.079216  0.041580      4.000000
 -0.091715  0.079216  0.041580      4.000000
 -0.073372  0.079216  0.041580      4.000000
 -0.055029  0.079216  0.041580      4.000000
 -0.036686  0.079216  0.041580      4.000000
 -0.018343  0.079216  0.041580      4.000000
  0.000000  0.099019  0.041580      4.000000
  0.018343  0.099019  0.041580      4.000000
  0.036686  0.099019  0.041580      4.000000
  0.055029  0.099019  0.041580      4.000000
  0.073372  0.099019  0.041580      4.000000
  0.091715  0.099019  0.041580      4.000000
 -0.091715  0.099019  0.041580      4.000000
 -0.073372  0.099019  0.041580      4.000000
 -0.055029  0.099019  0.041580      4.000000
 -0.036686  0.099019  0.041580      4.000000
 -0.018343  0.099019  0.041580      4.000000
  0.000000  0.118823  0.041580      4.000000
  0.018343  0.118823  0.041580      4.000000
  0.036686  0.118823  0.041580      4.000000
  0.055029  0.118823  0.041580      4.000000
  0.073372  0.118823  0.041580      4.000000
  0.091715  0.118823  0.041580      4.000000
 -0.091715  0.118823  0.041580      4.000000
 -0.073372  0.118823  0.041580      4.000000
 -0.055029  0.118823  0.041580      4.000000
 -0.036686  0.118823  0.041580      4.000000
 -0.018343  0.118823  0.041580      4.000000
  0.000000  0.138627  0.041580      4.000000
  0.018343  0.138627  0.041580      4.000000
  0.036686  0.138627  0.041580      4.000000
  0.055029  0.138627  0.041580      4.000000
  0.073372  0.138627  0.041580      4.000000
  0.091715  0.138627  0.041580      4.000000
 -0.091715  0.138627  0.041580      4.000000
 -0.073372  0.138627  0.041580      4.000000
 -0.055029  0.138627  0.041580      4.000000
 -0.036686  0.138627  0.041580      4.000000
 -0.018343  0.138627  0.041580      4.000000
  0.000000  0.158431  0.041580      4.000000
  0.018343  0.158431  0.041580      4.000000
  0.036686  0.158431  0.041580      4.000000
  0.055029  0.158431  0.041580      4.000000
  0.073372  0.158431  0.041580      4.000000
  0.091715  0.158431  0.041580      4.000000
 -0.091715  0.158431  0.041580      4.000000
 -0.073372  0.158431  0.041580      4.000000
 -0.055029  0.158431  0.041580      4.000000
 -0.036686  0.158431  0.041580      4.000000
 -0.018343  0.158431  0.041580      4.000000
  0.000000  0.178235  0.041580      2.000000
  0.018343  0.178235  0.041580      2.000000
  0.036686  0.178235  0.041580      2.000000
  0.055029  0.178235  0.041580      2.000000
  0.073372  0.178235  0.041580      2.000000
  0.091715  0.178235  0.041580      2.000000
 -0.091715  0.178235  0.041580      2.000000
 -0.073372  0.178235  0.041580      2.000000
 -0.055029  0.178235  0.041580      2.000000
 -0.036686  0.178235  0.041580      2.000000
 -0.018343  0.178235  0.041580      2.000000
  0.000000  0.000000  0.062369      2.000000
  0.018343  0.000000  0.062369      2.000000
  0.036686  0.000000  0.062369      2.000000
  0.055029  0.000000  0.062369      2.000000
  0.073372  0.000000  0.062369      2.000000
  0.091715  0.000000  0.062369      2.000000
 -0.091715  0.000000  0.062369      2.000000
 -0.073372  0.000000  0.062369      2.000000
 -0.055029  0.000000  0.062369      2.000000
 -0.036686  0.000000  0.062369      2.000000
 -0.018343  0.000000  0.062369      2.000000
  0.000000  0.019804  0.062369      4.000000
  0.018343  0.019804  0.062369      4.000000
  0.036686  0.019804  0.062369      4.000000
  0.055029  0.019804  0.062369      4.000000
  0.073372  0.019804  0.062369      4.000000
  0.091715  0.019804  0.062369      4.000000
 -0.091715  0.019804  0.062369      4.000000
 -0.073372  0.019804  0.062369      4.000000
 -0.055029  0.019804  0.062369      4.000000
 -0.036686  0.019804  0.062369      4.000000
 -0.018343  0.019804  0.062369      4.000000
  0.000000  0.039608  0.062369      4.000000
  0.018343  0.039608  0.062369      4.000000
  0.036686  0.039608  0.062369      4.000000
  0.055029  0.039608  0.062369      4.000000
  0.073372  0.039608  0.062369      4.000000
  0.091715  0.039608  0.062369      4.000000
 -0.091715  0.039608  0.062369      4.000000
 -0.073372  0.039608  0.062369      4.000000
 -0.055029  0.039608  0.062369      4.000000
 -0.036686  0.039608  0.062369      4.000000
 -0.018343  0.039608  0.062369      4.000000
  0.000000  0.059412  0.062369      4.000000
  0.018343  0.059412  0.062369      4.000000
  0.036686  0.059412  0.062369      4.000000
  0.055029  0.059412  0.062369      4.000000
  0.073372  0.059412  0.062369      4.000000
  0.091715  0.059412  0.062369      4.000000
 -0.091715  0.059412  0.062369      4.000000
 -0.073372  0.059412  0.062369      4.000000
 -0.055029  0.059412  0.062369      4.000000
 -0.036686  0.059412  0.062369      4.000000
 -0.018343  0.059412  0.062369      4.000000
  0.000000  0.079216  0.062369      4.000000
  0.018343  0.079216  0.062369      4.000000
  0.036686  0.079216  0.062369      4.000000
  0.055029  0.079216  0.062369      4.000000
  0.073372  0.079216  0.062369      4.000000
  0.091715  0.079216  0.062369      4.000000
 -0.091715  0.079216  0.062369      4.000000
 -0.073372  0.079216  0.062369      4.000000
 -0.055029  0.079216  0.062369      4.000000
 -0.036686  0.079216  0.062369      4.000000
 -0.018343  0.079216  0.062369      4.000000
  0.000000  0.099019  0.062369      4.000000
  0.018343  0.099019  0.062369      4.000000
  0.036686  0.099019  0.062369      4.000000
  0.055029  0.099019  0.062369      4.000000
  0.073372  0.099019  0.062369      4.000000
  0.091715  0.099019  0.062369      4.000000
 -0.091715  0.099019  0.062369      4.000000
 -0.073372  0.099019  0.062369      4.000000
 -0.055029  0.099019  0.062369      4.000000
 -0.036686  0.099019  0.062369      4.000000
 -0.018343  0.099019  0.062369      4.000000
  0.000000  0.118823  0.062369      4.000000
  0.018343  0.118823  0.062369      4.000000
  0.036686  0.118823  0.062369      4.000000
  0.055029  0.118823  0.062369      4.000000
  0.073372  0.118823  0.062369      4.000000
  0.091715  0.118823  0.062369      4.000000
 -0.091715  0.118823  0.062369      4.000000
 -0.073372  0.118823  0.062369      4.000000
 -0.055029  0.118823  0.062369      4.000000
 -0.036686  0.118823  0.062369      4.000000
 -0.018343  0.118823  0.062369      4.000000
  0.000000  0.138627  0.062369      4.000000
  0.018343  0.138627  0.062369      4.000000
  0.036686  0.138627  0.062369      4.000000
  0.055029  0.138627  0.062369      4.000000
  0.073372  0.138627  0.062369      4.000000
  0.091715  0.138627  0.062369      4.000000
 -0.091715  0.138627  0.062369      4.000000
 -0.073372  0.138627  0.062369      4.000000
 -0.055029  0.138627  0.062369      4.000000
 -0.036686  0.138627  0.062369      4.000000
 -0.018343  0.138627  0.062369      4.000000
  0.000000  0.158431  0.062369      4.000000
  0.018343  0.158431  0.062369      4.000000
  0.036686  0.158431  0.062369      4.000000
  0.055029  0.158431  0.062369      4.000000
  0.073372  0.158431  0.062369      4.000000
  0.091715  0.158431  0.062369      4.000000
 -0.091715  0.158431  0.062369      4.000000
 -0.073372  0.158431  0.062369      4.000000
 -0.055029  0.158431  0.062369      4.000000
 -0.036686  0.158431  0.062369      4.000000
 -0.018343  0.158431  0.062369      4.000000
  0.000000  0.178235  0.062369      2.000000
  0.018343  0.178235  0.062369      2.000000
  0.036686  0.178235  0.062369      2.000000
  0.055029  0.178235  0.062369      2.000000
  0.073372  0.178235  0.062369      2.000000
  0.091715  0.178235  0.062369      2.000000
 -0.091715  0.178235  0.062369      2.000000
 -0.073372  0.178235  0.062369      2.000000
 -0.055029  0.178235  0.062369      2.000000
 -0.036686  0.178235  0.062369      2.000000
 -0.018343  0.178235  0.062369      2.000000
 


--------------------------------------------------------------------------------------------------------




 Dimension of arrays:
   k-points           NKPTS =    390   k-points in BZ     NKDIM =    390   number of bands    NBANDS=     36
   number of dos      NEDOS =    301   number of ions     NIONS =      6
   non local maximal  LDIM  =      6   non local SUM 2l+1 LMDIM =     18
   total plane-waves  NPLWV =  51840
   max r-space proj   IRMAX =      1   max aug-charges    IRDMAX=   4459
   dimension x,y,z NGX =    40 NGY =   24 NGZ =   54
   dimension x,y,z NGXF=    40 NGYF=   24 NGZF=   56
   support grid    NGXF=    40 NGYF=   24 NGZF=   56
   ions per type =               6
   NGX,Y,Z   is equivalent  to a cutoff of  13.42, 14.22, 13.06 a.u.
   NGXF,Y,Z  is equivalent  to a cutoff of  13.42, 14.22, 13.55 a.u.

 SYSTEM =  unknown system                          
 POSCAR =  Pt                                      

 Startparameter for this run:
   NWRITE =      0    write-flag & timer
   PREC   = h         normal or accurate (medium, high low for compatibility)
   ISTART =      0    job   : 0-new  1-cont  2-samecut
   ICHARG =      2    charge: 1-file 2-atom 10-const
   ISPIN  =      1    spin polarized calculation?
   LNONCOLLINEAR =      F non collinear calculations
   LSORBIT =      F    spin-orbit coupling
   INIWAV =      1    electr: 0-lowe 1-rand  2-diag
   LASPH  =      F    aspherical Exc in radial PAW
   METAGGA=      F    non-selfconsistent MetaGGA calc.

 Electronic Relaxation 1
   ENCUT  =  550.0 eV  40.42 Ry    6.36 a.u.   9.48  5.36 13.14*2*pi/ulx,y,z
   ENINI  =  550.0     initial cutoff
   ENAUG  =  359.0 eV  augmentation charge cutoff
   NELM   =     60;   NELMIN=  2; NELMDL= -5     # of ELM steps 
   EDIFF  = 0.1E-05   stopping-criterion for ELM
   LREAL  =      F    real-space projection
   NLSPLINE    = F    spline interpolate recip. space projectors
   LCOMPAT=      F    compatible to vasp.4.4
   GGA_COMPAT  = T    GGA compatible to vasp.4.4-vasp.4.6
   LMAXPAW     = -100 max onsite density
   LMAXMIX     =    2 max onsite mixed and CHGCAR
   VOSKOWN=      0    Vosko Wilk Nusair interpolation
   ROPT   =    0.00000
 Ionic relaxation
   EDIFFG = -.1E-01   stopping-criterion for IOM
   NSW    =    200    number of steps for IOM
   NBLOCK =      1;   KBLOCK =    200    inner block; outer block 
   IBRION =      1    ionic relax: 0-MD 1-quasi-New 2-CG
   NFREE  =      0    steps in history (QN), initial steepest desc. (CG)
   ISIF   =      3    stress and relaxation
   IWAVPR =     11    prediction:  0-non 1-charg 2-wave 3-comb
   ISYM   =      2    0-nonsym 1-usesym 2-fastsym
   LCORR  =      T    Harris-Foulkes like correction to forces

   POTIM  = 0.1000    time-step for ionic-motion
   TEIN   =    0.0    initial temperature
   TEBEG  =    0.0;   TEEND  =   0.0 temperature during run
   SMASS  =  -3.00    Nose mass-parameter (am)
   estimated Nose-frequenzy (Omega)   =  0.10E-29 period in steps =****** mass=  -0.561E-27a.u.
   SCALEE = 1.0000    scale energy and forces
   NPACO  =    256;   APACO  = 16.0  distance and # of slots for P.C.
   PSTRESS=    0.0 pullay stress

  Mass of Ions in am
   POMASS = 195.08
  Ionic Valenz
   ZVAL   =  10.00
  Atomic Wigner-Seitz radii
   RWIGS  =  -1.00
  virtual crystal weights 
   VCA    =   1.00
   NELECT =      60.0000    total number of electrons
   NUPDOWN=      -1.0000    fix difference up-down

 DOS related values:
   EMIN   =  10.00;   EMAX   =-10.00  energy-range for DOS
   EFERMI =   0.00
   ISMEAR =     1;   SIGMA  =   0.10  broadening in eV -4-tet -1-fermi 0-gaus

 Electronic relaxation 2 (details)
   IALGO  =     68    algorithm
   LDIAG  =      T    sub-space diagonalisation (order eigenvalues)
   LSUBROT=      F    optimize rotation matrix (better conditioning)
   TURBO    =      0    0=normal 1=particle mesh
   IRESTART =      0    0=no restart 2=restart with 2 vectors
   NREBOOT  =      0    no. of reboots
   NMIN     =      0    reboot dimension
   EREF     =   0.00    reference energy to select bands
   IMIX   =      4    mixing-type and parameters
     AMIX     =   0.40;   BMIX     =  1.00
     AMIX_MAG =   1.60;   BMIX_MAG =  1.00
     AMIN     =   0.10
     WC   =   100.;   INIMIX=   1;  MIXPRE=   1;  MAXMIX= -45

 Intra band minimization:
   WEIMIN = 0.0010     energy-eigenvalue tresh-hold
   EBREAK =  0.69E-08  absolut break condition
   DEPER  =   0.30     relativ break condition  

   TIME   =   0.40     timestep for ELM

  volume/ion in A,a.u.               =      15.92       107.45
  Fermi-wavevector in a.u.,A,eV,Ry     =   1.401962  2.649323 26.742202  1.965496
  Thomas-Fermi vector in A             =   2.524771
 
 Write flags
   LWAVE        =      F    write WAVECAR
   LDOWNSAMPLE  =      F    k-point downsampling of WAVECAR
   LCHARG       =      F    write CHGCAR
   LVTOT        =      F    write LOCPOT, total local potential
   LVHAR        =      F    write LOCPOT, Hartree potential only
   LELF         =      F    write electronic localiz. function (ELF)
   LORBIT       =      0    0 simple, 1 ext, 2 COOP (PROOUT), +10 PAW based schemes


 Dipole corrections
   LMONO  =      F    monopole corrections only (constant potential shift)
   LDIPOL =      F    correct potential (dipole corrections)
   IDIPOL =      0    1-x, 2-y, 3-z, 4-all directions 
   EPSILON=  1.0000000 bulk dielectric constant

 Exchange correlation treatment:
   GGA     =    --    GGA type
   LEXCH   =     8    internal setting for exchange type
   VOSKOWN=      0    Vosko Wilk Nusair interpolation
   LHFCALC =     F    Hartree Fock is set to
   LHFONE  =     F    Hartree Fock one center treatment
   AEXX    =    0.0000 exact exchange contribution

 Linear response parameters
   LEPSILON=     F    determine dielectric tensor
   LRPA    =     F    only Hartree local field effects (RPA)
   LNABLA  =     F    use nabla operator in PAW spheres
   LVEL    =     F    velocity operator in full k-point grid
   LINTERFAST=   F  fast interpolation
   KINTER  =     0    interpolate to denser k-point grid
   CSHIFT  =0.1000    complex shift for real part using Kramers Kronig
   OMEGAMAX=  -1.0    maximum frequency
   DEG_THRESHOLD= 0.2000000E-02 threshold for treating states as degnerate
   RTIME   =   -0.100 relaxation time in fs
  (WPLASMAI=    0.000 imaginary part of plasma frequency in eV, 0.658/RTIME)
   DFIELD  = 0.0000000 0.0000000 0.0000000 field for delta impulse in time
 
 Orbital magnetization related:
   ORBITALMAG=     F  switch on orbital magnetization
   LCHIMAG   =     F  perturbation theory with respect to B field
   DQ        =  0.001000  dq finite difference perturbation B field
   LLRAUG    =     F  two centre corrections for induced B field



--------------------------------------------------------------------------------------------------------


 quasi-Newton-method for relaxation of ions
 charge density and potential will be updated during run
 non-spin polarized calculation
 RMM-DIIS sequential band-by-band and
  variant of blocked Davidson during initial phase
 perform sub-space diagonalisation
    before iterative eigenvector-optimisation
 modified Broyden-mixing scheme, WC =      100.0
 initial mixing is a Kerker type mixing with AMIX =  0.4000 and BMIX =      1.0000
 Hartree-type preconditioning will be used
 using additional bands            6
 reciprocal scheme for non local part
 use partial core corrections
 calculate Harris-corrections to forces 
   (improved forces if not selfconsistent)
 use gradient corrections 
 use of overlap-Matrix (Vanderbilt PP)
 Methfessel and Paxton  Order N= 1 SIGMA  =   0.10


--------------------------------------------------------------------------------------------------------


  energy-cutoff  :      550.00
  volume of cell :       95.54
      direct lattice vectors                 reciprocal lattice vectors
     4.956073930  0.000000000  0.000000000     0.201772616  0.000000000  0.000000000
     0.000000000  2.805284920  0.000000000     0.000000000  0.356470030  0.000000000
     0.000000000  0.000000000  6.871516630     0.000000000  0.000000000  0.145528281

  length of vectors
     4.956073930  2.805284920  6.871516630     0.201772616  0.356470030  0.145528281


 
 k-points in units of 2pi/SCALE and weight: K-Spacing Value to Generate K-Mesh: 0.02
   0.00000000  0.00000000  0.00000000       0.001
   0.01834297  0.00000000  0.00000000       0.001
   0.03668593  0.00000000  0.00000000       0.001
   0.05502890  0.00000000  0.00000000       0.001
   0.07337186  0.00000000  0.00000000       0.001
   0.09171483  0.00000000  0.00000000       0.001
   0.00000000  0.01980389  0.00000000       0.001
   0.01834297  0.01980389  0.00000000       0.003
   0.03668593  0.01980389  0.00000000       0.003
   0.05502890  0.01980389  0.00000000       0.003
   0.07337186  0.01980389  0.00000000       0.003
   0.09171483  0.01980389  0.00000000       0.003
   0.00000000  0.03960778  0.00000000       0.001
   0.01834297  0.03960778  0.00000000       0.003
   0.03668593  0.03960778  0.00000000       0.003
   0.05502890  0.03960778  0.00000000       0.003
   0.07337186  0.03960778  0.00000000       0.003
   0.09171483  0.03960778  0.00000000       0.003
   0.00000000  0.05941167  0.00000000       0.001
   0.01834297  0.05941167  0.00000000       0.003
   0.03668593  0.05941167  0.00000000       0.003
   0.05502890  0.05941167  0.00000000       0.003
   0.07337186  0.05941167  0.00000000       0.003
   0.09171483  0.05941167  0.00000000       0.003
   0.00000000  0.07921556  0.00000000       0.001
   0.01834297  0.07921556  0.00000000       0.003
   0.03668593  0.07921556  0.00000000       0.003
   0.05502890  0.07921556  0.00000000       0.003
   0.07337186  0.07921556  0.00000000       0.003
   0.09171483  0.07921556  0.00000000       0.003
   0.00000000  0.09901945  0.00000000       0.001
   0.01834297  0.09901945  0.00000000       0.003
   0.03668593  0.09901945  0.00000000       0.003
   0.05502890  0.09901945  0.00000000       0.003
   0.07337186  0.09901945  0.00000000       0.003
   0.09171483  0.09901945  0.00000000       0.003
   0.00000000  0.11882334  0.00000000       0.001
   0.01834297  0.11882334  0.00000000       0.003
   0.03668593  0.11882334  0.00000000       0.003
   0.05502890  0.11882334  0.00000000       0.003
   0.07337186  0.11882334  0.00000000       0.003
   0.09171483  0.11882334  0.00000000       0.003
   0.00000000  0.13862723  0.00000000       0.001
   0.01834297  0.13862723  0.00000000       0.003
   0.03668593  0.13862723  0.00000000       0.003
   0.05502890  0.13862723  0.00000000       0.003
   0.07337186  0.13862723  0.00000000       0.003
   0.09171483  0.13862723  0.00000000       0.003
   0.00000000  0.15843112  0.00000000       0.001
   0.01834297  0.15843112  0.00000000       0.003
   0.03668593  0.15843112  0.00000000       0.003
   0.05502890  0.15843112  0.00000000       0.003
   0.07337186  0.15843112  0.00000000       0.003
   0.09171483  0.15843112  0.00000000       0.003
   0.00000000  0.17823502  0.00000000       0.001
   0.01834297  0.17823502  0.00000000       0.001
   0.03668593  0.17823502  0.00000000       0.001
   0.05502890  0.17823502  0.00000000       0.001
   0.07337186  0.17823502  0.00000000       0.001
   0.09171483  0.17823502  0.00000000       0.001
   0.00000000  0.00000000  0.02078975       0.001
   0.01834297  0.00000000  0.02078975       0.001
   0.03668593  0.00000000  0.02078975       0.001
   0.05502890  0.00000000  0.02078975       0.001
   0.07337186  0.00000000  0.02078975       0.001
   0.09171483  0.00000000  0.02078975       0.001
  -0.09171483  0.00000000  0.02078975       0.001
  -0.07337186  0.00000000  0.02078975       0.001
  -0.05502890  0.00000000  0.02078975       0.001
  -0.03668593  0.00000000  0.02078975       0.001
  -0.01834297  0.00000000  0.02078975       0.001
   0.00000000  0.01980389  0.02078975       0.003
   0.01834297  0.01980389  0.02078975       0.003
   0.03668593  0.01980389  0.02078975       0.003
   0.05502890  0.01980389  0.02078975       0.003
   0.07337186  0.01980389  0.02078975       0.003
   0.09171483  0.01980389  0.02078975       0.003
  -0.09171483  0.01980389  0.02078975       0.003
  -0.07337186  0.01980389  0.02078975       0.003
  -0.05502890  0.01980389  0.02078975       0.003
  -0.03668593  0.01980389  0.02078975       0.003
  -0.01834297  0.01980389  0.02078975       0.003
   0.00000000  0.03960778  0.02078975       0.003
   0.01834297  0.03960778  0.02078975       0.003
   0.03668593  0.03960778  0.02078975       0.003
   0.05502890  0.03960778  0.02078975       0.003
   0.07337186  0.03960778  0.02078975       0.003
   0.09171483  0.03960778  0.02078975       0.003
  -0.09171483  0.03960778  0.02078975       0.003
  -0.07337186  0.03960778  0.02078975       0.003
  -0.05502890  0.03960778  0.02078975       0.003
  -0.03668593  0.03960778  0.02078975       0.003
  -0.01834297  0.03960778  0.02078975       0.003
   0.00000000  0.05941167  0.02078975       0.003
   0.01834297  0.05941167  0.02078975       0.003
   0.03668593  0.05941167  0.02078975       0.003
   0.05502890  0.05941167  0.02078975       0.003
   0.07337186  0.05941167  0.02078975       0.003
   0.09171483  0.05941167  0.02078975       0.003
  -0.09171483  0.05941167  0.02078975       0.003
  -0.07337186  0.05941167  0.02078975       0.003
  -0.05502890  0.05941167  0.02078975       0.003
  -0.03668593  0.05941167  0.02078975       0.003
  -0.01834297  0.05941167  0.02078975       0.003
   0.00000000  0.07921556  0.02078975       0.003
   0.01834297  0.07921556  0.02078975       0.003
   0.03668593  0.07921556  0.02078975       0.003
   0.05502890  0.07921556  0.02078975       0.003
   0.07337186  0.07921556  0.02078975       0.003
   0.09171483  0.07921556  0.02078975       0.003
  -0.09171483  0.07921556  0.02078975       0.003
  -0.07337186  0.07921556  0.02078975       0.003
  -0.05502890  0.07921556  0.02078975       0.003
  -0.03668593  0.07921556  0.02078975       0.003
  -0.01834297  0.07921556  0.02078975       0.003
   0.00000000  0.09901945  0.02078975       0.003
   0.01834297  0.09901945  0.02078975       0.003
   0.03668593  0.09901945  0.02078975       0.003
   0.05502890  0.09901945  0.02078975       0.003
   0.07337186  0.09901945  0.02078975       0.003
   0.09171483  0.09901945  0.02078975       0.003
  -0.09171483  0.09901945  0.02078975       0.003
  -0.07337186  0.09901945  0.02078975       0.003
  -0.05502890  0.09901945  0.02078975       0.003
  -0.03668593  0.09901945  0.02078975       0.003
  -0.01834297  0.09901945  0.02078975       0.003
   0.00000000  0.11882334  0.02078975       0.003
   0.01834297  0.11882334  0.02078975       0.003
   0.03668593  0.11882334  0.02078975       0.003
   0.05502890  0.11882334  0.02078975       0.003
   0.07337186  0.11882334  0.02078975       0.003
   0.09171483  0.11882334  0.02078975       0.003
  -0.09171483  0.11882334  0.02078975       0.003
  -0.07337186  0.11882334  0.02078975       0.003
  -0.05502890  0.11882334  0.02078975       0.003
  -0.03668593  0.11882334  0.02078975       0.003
  -0.01834297  0.11882334  0.02078975       0.003
   0.00000000  0.13862723  0.02078975       0.003
   0.01834297  0.13862723  0.02078975       0.003
   0.03668593  0.13862723  0.02078975       0.003
   0.05502890  0.13862723  0.02078975       0.003
   0.07337186  0.13862723  0.02078975       0.003
   0.09171483  0.13862723  0.02078975       0.003
  -0.09171483  0.13862723  0.02078975       0.003
  -0.07337186  0.13862723  0.02078975       0.003
  -0.05502890  0.13862723  0.02078975       0.003
  -0.03668593  0.13862723  0.02078975       0.003
  -0.01834297  0.13862723  0.02078975       0.003
   0.00000000  0.15843112  0.02078975       0.003
   0.01834297  0.15843112  0.02078975       0.003
   0.03668593  0.15843112  0.02078975       0.003
   0.05502890  0.15843112  0.02078975       0.003
   0.07337186  0.15843112  0.02078975       0.003
   0.09171483  0.15843112  0.02078975       0.003
  -0.09171483  0.15843112  0.02078975       0.003
  -0.07337186  0.15843112  0.02078975       0.003
  -0.05502890  0.15843112  0.02078975       0.003
  -0.03668593  0.15843112  0.02078975       0.003
  -0.01834297  0.15843112  0.02078975       0.003
   0.00000000  0.17823502  0.02078975       0.001
   0.01834297  0.17823502  0.02078975       0.001
   0.03668593  0.17823502  0.02078975       0.001
   0.05502890  0.17823502  0.02078975       0.001
   0.07337186  0.17823502  0.02078975       0.001
   0.09171483  0.17823502  0.02078975       0.001
  -0.09171483  0.17823502  0.02078975       0.001
  -0.07337186  0.17823502  0.02078975       0.001
  -0.05502890  0.17823502  0.02078975       0.001
  -0.03668593  0.17823502  0.02078975       0.001
  -0.01834297  0.17823502  0.02078975       0.001
   0.00000000  0.00000000  0.04157951       0.001
   0.01834297  0.00000000  0.04157951       0.001
   0.03668593  0.00000000  0.04157951       0.001
   0.05502890  0.00000000  0.04157951       0.001
   0.07337186  0.00000000  0.04157951       0.001
   0.09171483  0.00000000  0.04157951       0.001
  -0.09171483  0.00000000  0.04157951       0.001
  -0.07337186  0.00000000  0.04157951       0.001
  -0.05502890  0.00000000  0.04157951       0.001
  -0.03668593  0.00000000  0.04157951       0.001
  -0.01834297  0.00000000  0.04157951       0.001
   0.00000000  0.01980389  0.04157951       0.003
   0.01834297  0.01980389  0.04157951       0.003
   0.03668593  0.01980389  0.04157951       0.003
   0.05502890  0.01980389  0.04157951       0.003
   0.07337186  0.01980389  0.04157951       0.003
   0.09171483  0.01980389  0.04157951       0.003
  -0.09171483  0.01980389  0.04157951       0.003
  -0.07337186  0.01980389  0.04157951       0.003
  -0.05502890  0.01980389  0.04157951       0.003
  -0.03668593  0.01980389  0.04157951       0.003
  -0.01834297  0.01980389  0.04157951       0.003
   0.00000000  0.03960778  0.04157951       0.003
   0.01834297  0.03960778  0.04157951       0.003
   0.03668593  0.03960778  0.04157951       0.003
   0.05502890  0.03960778  0.04157951       0.003
   0.07337186  0.03960778  0.04157951       0.003
   0.09171483  0.03960778  0.04157951       0.003
  -0.09171483  0.03960778  0.04157951       0.003
  -0.07337186  0.03960778  0.04157951       0.003
  -0.05502890  0.03960778  0.04157951       0.003
  -0.03668593  0.03960778  0.04157951       0.003
  -0.01834297  0.03960778  0.04157951       0.003
   0.00000000  0.05941167  0.04157951       0.003
   0.01834297  0.05941167  0.04157951       0.003
   0.03668593  0.05941167  0.04157951       0.003
   0.05502890  0.05941167  0.04157951       0.003
   0.07337186  0.05941167  0.04157951       0.003
   0.09171483  0.05941167  0.04157951       0.003
  -0.09171483  0.05941167  0.04157951       0.003
  -0.07337186  0.05941167  0.04157951       0.003
  -0.05502890  0.05941167  0.04157951       0.003
  -0.03668593  0.05941167  0.04157951       0.003
  -0.01834297  0.05941167  0.04157951       0.003
   0.00000000  0.07921556  0.04157951       0.003
   0.01834297  0.07921556  0.04157951       0.003
   0.03668593  0.07921556  0.04157951       0.003
   0.05502890  0.07921556  0.04157951       0.003
   0.07337186  0.07921556  0.04157951       0.003
   0.09171483  0.07921556  0.04157951       0.003
  -0.09171483  0.07921556  0.04157951       0.003
  -0.07337186  0.07921556  0.04157951       0.003
  -0.05502890  0.07921556  0.04157951       0.003
  -0.03668593  0.07921556  0.04157951       0.003
  -0.01834297  0.07921556  0.04157951       0.003
   0.00000000  0.09901945  0.04157951       0.003
   0.01834297  0.09901945  0.04157951       0.003
   0.03668593  0.09901945  0.04157951       0.003
   0.05502890  0.09901945  0.04157951       0.003
   0.07337186  0.09901945  0.04157951       0.003
   0.09171483  0.09901945  0.04157951       0.003
  -0.09171483  0.09901945  0.04157951       0.003
  -0.07337186  0.09901945  0.04157951       0.003
  -0.05502890  0.09901945  0.04157951       0.003
  -0.03668593  0.09901945  0.04157951       0.003
  -0.01834297  0.09901945  0.04157951       0.003
   0.00000000  0.11882334  0.04157951       0.003
   0.01834297  0.11882334  0.04157951       0.003
   0.03668593  0.11882334  0.04157951       0.003
   0.05502890  0.11882334  0.04157951       0.003
   0.07337186  0.11882334  0.04157951       0.003
   0.09171483  0.11882334  0.04157951       0.003
  -0.09171483  0.11882334  0.04157951       0.003
  -0.07337186  0.11882334  0.04157951       0.003
  -0.05502890  0.11882334  0.04157951       0.003
  -0.03668593  0.11882334  0.04157951       0.003
  -0.01834297  0.11882334  0.04157951       0.003
   0.00000000  0.13862723  0.04157951       0.003
   0.01834297  0.13862723  0.04157951       0.003
   0.03668593  0.13862723  0.04157951       0.003
   0.05502890  0.13862723  0.04157951       0.003
   0.07337186  0.13862723  0.04157951       0.003
   0.09171483  0.13862723  0.04157951       0.003
  -0.09171483  0.13862723  0.04157951       0.003
  -0.07337186  0.13862723  0.04157951       0.003
  -0.05502890  0.13862723  0.04157951       0.003
  -0.03668593  0.13862723  0.04157951       0.003
  -0.01834297  0.13862723  0.04157951       0.003
   0.00000000  0.15843112  0.04157951       0.003
   0.01834297  0.15843112  0.04157951       0.003
   0.03668593  0.15843112  0.04157951       0.003
   0.05502890  0.15843112  0.04157951       0.003
   0.07337186  0.15843112  0.04157951       0.003
   0.09171483  0.15843112  0.04157951       0.003
  -0.09171483  0.15843112  0.04157951       0.003
  -0.07337186  0.15843112  0.04157951       0.003
  -0.05502890  0.15843112  0.04157951       0.003
  -0.03668593  0.15843112  0.04157951       0.003
  -0.01834297  0.15843112  0.04157951       0.003
   0.00000000  0.17823502  0.04157951       0.001
   0.01834297  0.17823502  0.04157951       0.001
   0.03668593  0.17823502  0.04157951       0.001
   0.05502890  0.17823502  0.04157951       0.001
   0.07337186  0.17823502  0.04157951       0.001
   0.09171483  0.17823502  0.04157951       0.001
  -0.09171483  0.17823502  0.04157951       0.001
  -0.07337186  0.17823502  0.04157951       0.001
  -0.05502890  0.17823502  0.04157951       0.001
  -0.03668593  0.17823502  0.04157951       0.001
  -0.01834297  0.17823502  0.04157951       0.001
   0.00000000  0.00000000  0.06236926       0.001
   0.01834297  0.00000000  0.06236926       0.001
   0.03668593  0.00000000  0.06236926       0.001
   0.05502890  0.00000000  0.06236926       0.001
   0.07337186  0.00000000  0.06236926       0.001
   0.09171483  0.00000000  0.06236926       0.001
  -0.09171483  0.00000000  0.06236926       0.001
  -0.07337186  0.00000000  0.06236926       0.001
  -0.05502890  0.00000000  0.06236926       0.001
  -0.03668593  0.00000000  0.06236926       0.001
  -0.01834297  0.00000000  0.06236926       0.001
   0.00000000  0.01980389  0.06236926       0.003
   0.01834297  0.01980389  0.06236926       0.003
   0.03668593  0.01980389  0.06236926       0.003
   0.05502890  0.01980389  0.06236926       0.003
   0.07337186  0.01980389  0.06236926       0.003
   0.09171483  0.01980389  0.06236926       0.003
  -0.09171483  0.01980389  0.06236926       0.003
  -0.07337186  0.01980389  0.06236926       0.003
  -0.05502890  0.01980389  0.06236926       0.003
  -0.03668593  0.01980389  0.06236926       0.003
  -0.01834297  0.01980389  0.06236926       0.003
   0.00000000  0.03960778  0.06236926       0.003
   0.01834297  0.03960778  0.06236926       0.003
   0.03668593  0.03960778  0.06236926       0.003
   0.05502890  0.03960778  0.06236926       0.003
   0.07337186  0.03960778  0.06236926       0.003
   0.09171483  0.03960778  0.06236926       0.003
  -0.09171483  0.03960778  0.06236926       0.003
  -0.07337186  0.03960778  0.06236926       0.003
  -0.05502890  0.03960778  0.06236926       0.003
  -0.03668593  0.03960778  0.06236926       0.003
  -0.01834297  0.03960778  0.06236926       0.003
   0.00000000  0.05941167  0.06236926       0.003
   0.01834297  0.05941167  0.06236926       0.003
   0.03668593  0.05941167  0.06236926       0.003
   0.05502890  0.05941167  0.06236926       0.003
   0.07337186  0.05941167  0.06236926       0.003
   0.09171483  0.05941167  0.06236926       0.003
  -0.09171483  0.05941167  0.06236926       0.003
  -0.07337186  0.05941167  0.06236926       0.003
  -0.05502890  0.05941167  0.06236926       0.003
  -0.03668593  0.05941167  0.06236926       0.003
  -0.01834297  0.05941167  0.06236926       0.003
   0.00000000  0.07921556  0.06236926       0.003
   0.01834297  0.07921556  0.06236926       0.003
   0.03668593  0.07921556  0.06236926       0.003
   0.05502890  0.07921556  0.06236926       0.003
   0.07337186  0.07921556  0.06236926       0.003
   0.09171483  0.07921556  0.06236926       0.003
  -0.09171483  0.07921556  0.06236926       0.003
  -0.07337186  0.07921556  0.06236926       0.003
  -0.05502890  0.07921556  0.06236926       0.003
  -0.03668593  0.07921556  0.06236926       0.003
  -0.01834297  0.07921556  0.06236926       0.003
   0.00000000  0.09901945  0.06236926       0.003
   0.01834297  0.09901945  0.06236926       0.003
   0.03668593  0.09901945  0.06236926       0.003
   0.05502890  0.09901945  0.06236926       0.003
   0.07337186  0.09901945  0.06236926       0.003
   0.09171483  0.09901945  0.06236926       0.003
  -0.09171483  0.09901945  0.06236926       0.003
  -0.07337186  0.09901945  0.06236926       0.003
  -0.05502890  0.09901945  0.06236926       0.003
  -0.03668593  0.09901945  0.06236926       0.003
  -0.01834297  0.09901945  0.06236926       0.003
   0.00000000  0.11882334  0.06236926       0.003
   0.01834297  0.11882334  0.06236926       0.003
   0.03668593  0.11882334  0.06236926       0.003
   0.05502890  0.11882334  0.06236926       0.003
   0.07337186  0.11882334  0.06236926       0.003
   0.09171483  0.11882334  0.06236926       0.003
  -0.09171483  0.11882334  0.06236926       0.003
  -0.07337186  0.11882334  0.06236926       0.003
  -0.05502890  0.11882334  0.06236926       0.003
  -0.03668593  0.11882334  0.06236926       0.003
  -0.01834297  0.11882334  0.06236926       0.003
   0.00000000  0.13862723  0.06236926       0.003
   0.01834297  0.13862723  0.06236926       0.003
   0.03668593  0.13862723  0.06236926       0.003
   0.05502890  0.13862723  0.06236926       0.003
   0.07337186  0.13862723  0.06236926       0.003
   0.09171483  0.13862723  0.06236926       0.003
  -0.09171483  0.13862723  0.06236926       0.003
  -0.07337186  0.13862723  0.06236926       0.003
  -0.05502890  0.13862723  0.06236926       0.003
  -0.03668593  0.13862723  0.06236926       0.003
  -0.01834297  0.13862723  0.06236926       0.003
   0.00000000  0.15843112  0.06236926       0.003
   0.01834297  0.15843112  0.06236926       0.003
   0.03668593  0.15843112  0.06236926       0.003
   0.05502890  0.15843112  0.06236926       0.003
   0.07337186  0.15843112  0.06236926       0.003
   0.09171483  0.15843112  0.06236926       0.003
  -0.09171483  0.15843112  0.06236926       0.003
  -0.07337186  0.15843112  0.06236926       0.003
  -0.05502890  0.15843112  0.06236926       0.003
  -0.03668593  0.15843112  0.06236926       0.003
  -0.01834297  0.15843112  0.06236926       0.003
   0.00000000  0.17823502  0.06236926       0.001
   0.01834297  0.17823502  0.06236926       0.001
   0.03668593  0.17823502  0.06236926       0.001
   0.05502890  0.17823502  0.06236926       0.001
   0.07337186  0.17823502  0.06236926       0.001
   0.09171483  0.17823502  0.06236926       0.001
  -0.09171483  0.17823502  0.06236926       0.001
  -0.07337186  0.17823502  0.06236926       0.001
  -0.05502890  0.17823502  0.06236926       0.001
  -0.03668593  0.17823502  0.06236926       0.001
  -0.01834297  0.17823502  0.06236926       0.001
 
 k-points in reciprocal lattice and weights: K-Spacing Value to Generate K-Mesh: 0.02
   0.00000000  0.00000000  0.00000000       0.001
   0.09090909  0.00000000  0.00000000       0.001
   0.18181818  0.00000000  0.00000000       0.001
   0.27272727  0.00000000  0.00000000       0.001
   0.36363636  0.00000000  0.00000000       0.001
   0.45454545  0.00000000  0.00000000       0.001
   0.00000000  0.05555556  0.00000000       0.001
   0.09090909  0.05555556  0.00000000       0.003
   0.18181818  0.05555556  0.00000000       0.003
   0.27272727  0.05555556  0.00000000       0.003
   0.36363636  0.05555556  0.00000000       0.003
   0.45454545  0.05555556  0.00000000       0.003
   0.00000000  0.11111111  0.00000000       0.001
   0.09090909  0.11111111  0.00000000       0.003
   0.18181818  0.11111111  0.00000000       0.003
   0.27272727  0.11111111  0.00000000       0.003
   0.36363636  0.11111111  0.00000000       0.003
   0.45454545  0.11111111  0.00000000       0.003
   0.00000000  0.16666667  0.00000000       0.001
   0.09090909  0.16666667  0.00000000       0.003
   0.18181818  0.16666667  0.00000000       0.003
   0.27272727  0.16666667  0.00000000       0.003
   0.36363636  0.16666667  0.00000000       0.003
   0.45454545  0.16666667  0.00000000       0.003
   0.00000000  0.22222222  0.00000000       0.001
   0.09090909  0.22222222  0.00000000       0.003
   0.18181818  0.22222222  0.00000000       0.003
   0.27272727  0.22222222  0.00000000       0.003
   0.36363636  0.22222222  0.00000000       0.003
   0.45454545  0.22222222  0.00000000       0.003
   0.00000000  0.27777778  0.00000000       0.001
   0.09090909  0.27777778  0.00000000       0.003
   0.18181818  0.27777778  0.00000000       0.003
   0.27272727  0.27777778  0.00000000       0.003
   0.36363636  0.27777778  0.00000000       0.003
   0.45454545  0.27777778  0.00000000       0.003
   0.00000000  0.33333333  0.00000000       0.001
   0.09090909  0.33333333  0.00000000       0.003
   0.18181818  0.33333333  0.00000000       0.003
   0.27272727  0.33333333  0.00000000       0.003
   0.36363636  0.33333333  0.00000000       0.003
   0.45454545  0.33333333  0.00000000       0.003
   0.00000000  0.38888889  0.00000000       0.001
   0.09090909  0.38888889  0.00000000       0.003
   0.18181818  0.38888889  0.00000000       0.003
   0.27272727  0.38888889  0.00000000       0.003
   0.36363636  0.38888889  0.00000000       0.003
   0.45454545  0.38888889  0.00000000       0.003
   0.00000000  0.44444444  0.00000000       0.001
   0.09090909  0.44444444  0.00000000       0.003
   0.18181818  0.44444444  0.00000000       0.003
   0.27272727  0.44444444  0.00000000       0.003
   0.36363636  0.44444444  0.00000000       0.003
   0.45454545  0.44444444  0.00000000       0.003
   0.00000000  0.50000000  0.00000000       0.001
   0.09090909  0.50000000  0.00000000       0.001
   0.18181818  0.50000000  0.00000000       0.001
   0.27272727  0.50000000  0.00000000       0.001
   0.36363636  0.50000000  0.00000000       0.001
   0.45454545  0.50000000  0.00000000       0.001
   0.00000000  0.00000000  0.14285714       0.001
   0.09090909  0.00000000  0.14285714       0.001
   0.18181818  0.00000000  0.14285714       0.001
   0.27272727  0.00000000  0.14285714       0.001
   0.36363636  0.00000000  0.14285714       0.001
   0.45454545  0.00000000  0.14285714       0.001
  -0.45454545  0.00000000  0.14285714       0.001
  -0.36363636  0.00000000  0.14285714       0.001
  -0.27272727  0.00000000  0.14285714       0.001
  -0.18181818  0.00000000  0.14285714       0.001
  -0.09090909  0.00000000  0.14285714       0.001
   0.00000000  0.05555556  0.14285714       0.003
   0.09090909  0.05555556  0.14285714       0.003
   0.18181818  0.05555556  0.14285714       0.003
   0.27272727  0.05555556  0.14285714       0.003
   0.36363636  0.05555556  0.14285714       0.003
   0.45454545  0.05555556  0.14285714       0.003
  -0.45454545  0.05555556  0.14285714       0.003
  -0.36363636  0.05555556  0.14285714       0.003
  -0.27272727  0.05555556  0.14285714       0.003
  -0.18181818  0.05555556  0.14285714       0.003
  -0.09090909  0.05555556  0.14285714       0.003
   0.00000000  0.11111111  0.14285714       0.003
   0.09090909  0.11111111  0.14285714       0.003
   0.18181818  0.11111111  0.14285714       0.003
   0.27272727  0.11111111  0.14285714       0.003
   0.36363636  0.11111111  0.14285714       0.003
   0.45454545  0.11111111  0.14285714       0.003
  -0.45454545  0.11111111  0.14285714       0.003
  -0.36363636  0.11111111  0.14285714       0.003
  -0.27272727  0.11111111  0.14285714       0.003
  -0.18181818  0.11111111  0.14285714       0.003
  -0.09090909  0.11111111  0.14285714       0.003
   0.00000000  0.16666667  0.14285714       0.003
   0.09090909  0.16666667  0.14285714       0.003
   0.18181818  0.16666667  0.14285714       0.003
   0.27272727  0.16666667  0.14285714       0.003
   0.36363636  0.16666667  0.14285714       0.003
   0.45454545  0.16666667  0.14285714       0.003
  -0.45454545  0.16666667  0.14285714       0.003
  -0.36363636  0.16666667  0.14285714       0.003
  -0.27272727  0.16666667  0.14285714       0.003
  -0.18181818  0.16666667  0.14285714       0.003
  -0.09090909  0.16666667  0.14285714       0.003
   0.00000000  0.22222222  0.14285714       0.003
   0.09090909  0.22222222  0.14285714       0.003
   0.18181818  0.22222222  0.14285714       0.003
   0.27272727  0.22222222  0.14285714       0.003
   0.36363636  0.22222222  0.14285714       0.003
   0.45454545  0.22222222  0.14285714       0.003
  -0.45454545  0.22222222  0.14285714       0.003
  -0.36363636  0.22222222  0.14285714       0.003
  -0.27272727  0.22222222  0.14285714       0.003
  -0.18181818  0.22222222  0.14285714       0.003
  -0.09090909  0.22222222  0.14285714       0.003
   0.00000000  0.27777778  0.14285714       0.003
   0.09090909  0.27777778  0.14285714       0.003
   0.18181818  0.27777778  0.14285714       0.003
   0.27272727  0.27777778  0.14285714       0.003
   0.36363636  0.27777778  0.14285714       0.003
   0.45454545  0.27777778  0.14285714       0.003
  -0.45454545  0.27777778  0.14285714       0.003
  -0.36363636  0.27777778  0.14285714       0.003
  -0.27272727  0.27777778  0.14285714       0.003
  -0.18181818  0.27777778  0.14285714       0.003
  -0.09090909  0.27777778  0.14285714       0.003
   0.00000000  0.33333333  0.14285714       0.003
   0.09090909  0.33333333  0.14285714       0.003
   0.18181818  0.33333333  0.14285714       0.003
   0.27272727  0.33333333  0.14285714       0.003
   0.36363636  0.33333333  0.14285714       0.003
   0.45454545  0.33333333  0.14285714       0.003
  -0.45454545  0.33333333  0.14285714       0.003
  -0.36363636  0.33333333  0.14285714       0.003
  -0.27272727  0.33333333  0.14285714       0.003
  -0.18181818  0.33333333  0.14285714       0.003
  -0.09090909  0.33333333  0.14285714       0.003
   0.00000000  0.38888889  0.14285714       0.003
   0.09090909  0.38888889  0.14285714       0.003
   0.18181818  0.38888889  0.14285714       0.003
   0.27272727  0.38888889  0.14285714       0.003
   0.36363636  0.38888889  0.14285714       0.003
   0.45454545  0.38888889  0.14285714       0.003
  -0.45454545  0.38888889  0.14285714       0.003
  -0.36363636  0.38888889  0.14285714       0.003
  -0.27272727  0.38888889  0.14285714       0.003
  -0.18181818  0.38888889  0.14285714       0.003
  -0.09090909  0.38888889  0.14285714       0.003
   0.00000000  0.44444444  0.14285714       0.003
   0.09090909  0.44444444  0.14285714       0.003
   0.18181818  0.44444444  0.14285714       0.003
   0.27272727  0.44444444  0.14285714       0.003
   0.36363636  0.44444444  0.14285714       0.003
   0.45454545  0.44444444  0.14285714       0.003
  -0.45454545  0.44444444  0.14285714       0.003
  -0.36363636  0.44444444  0.14285714       0.003
  -0.27272727  0.44444444  0.14285714       0.003
  -0.18181818  0.44444444  0.14285714       0.003
  -0.09090909  0.44444444  0.14285714       0.003
   0.00000000  0.50000000  0.14285714       0.001
   0.09090909  0.50000000  0.14285714       0.001
   0.18181818  0.50000000  0.14285714       0.001
   0.27272727  0.50000000  0.14285714       0.001
   0.36363636  0.50000000  0.14285714       0.001
   0.45454545  0.50000000  0.14285714       0.001
  -0.45454545  0.50000000  0.14285714       0.001
  -0.36363636  0.50000000  0.14285714       0.001
  -0.27272727  0.50000000  0.14285714       0.001
  -0.18181818  0.50000000  0.14285714       0.001
  -0.09090909  0.50000000  0.14285714       0.001
   0.00000000  0.00000000  0.28571429       0.001
   0.09090909  0.00000000  0.28571429       0.001
   0.18181818  0.00000000  0.28571429       0.001
   0.27272727  0.00000000  0.28571429       0.001
   0.36363636  0.00000000  0.28571429       0.001
   0.45454545  0.00000000  0.28571429       0.001
  -0.45454545  0.00000000  0.28571429       0.001
  -0.36363636  0.00000000  0.28571429       0.001
  -0.27272727  0.00000000  0.28571429       0.001
  -0.18181818  0.00000000  0.28571429       0.001
  -0.09090909  0.00000000  0.28571429       0.001
   0.00000000  0.05555556  0.28571429       0.003
   0.09090909  0.05555556  0.28571429       0.003
   0.18181818  0.05555556  0.28571429       0.003
   0.27272727  0.05555556  0.28571429       0.003
   0.36363636  0.05555556  0.28571429       0.003
   0.45454545  0.05555556  0.28571429       0.003
  -0.45454545  0.05555556  0.28571429       0.003
  -0.36363636  0.05555556  0.28571429       0.003
  -0.27272727  0.05555556  0.28571429       0.003
  -0.18181818  0.05555556  0.28571429       0.003
  -0.09090909  0.05555556  0.28571429       0.003
   0.00000000  0.11111111  0.28571429       0.003
   0.09090909  0.11111111  0.28571429       0.003
   0.18181818  0.11111111  0.28571429       0.003
   0.27272727  0.11111111  0.28571429       0.003
   0.36363636  0.11111111  0.28571429       0.003
   0.45454545  0.11111111  0.28571429       0.003
  -0.45454545  0.11111111  0.28571429       0.003
  -0.36363636  0.11111111  0.28571429       0.003
  -0.27272727  0.11111111  0.28571429       0.003
  -0.18181818  0.11111111  0.28571429       0.003
  -0.09090909  0.11111111  0.28571429       0.003
   0.00000000  0.16666667  0.28571429       0.003
   0.09090909  0.16666667  0.28571429       0.003
   0.18181818  0.16666667  0.28571429       0.003
   0.27272727  0.16666667  0.28571429       0.003
   0.36363636  0.16666667  0.28571429       0.003
   0.45454545  0.16666667  0.28571429       0.003
  -0.45454545  0.16666667  0.28571429       0.003
  -0.36363636  0.16666667  0.28571429       0.003
  -0.27272727  0.16666667  0.28571429       0.003
[...]


    WAVPRE:  cpu time    0.0018: real time    0.0018
    FEWALD:  cpu time    0.0010: real time    0.0014
    GENKIN:  cpu time    0.1025: real time    0.1025
    ORTHCH:  cpu time    0.2393: real time    0.2394
     LOOP+:  cpu time   37.1381: real time   37.1517


--------------------------------------- Iteration      3(   1)  ---------------------------------------


    POTLOK:  cpu time    0.0029: real time    0.0049
    SETDIJ:  cpu time    0.0021: real time    0.0021
     EDDAV:  cpu time   12.8167: real time   12.8196
       DOS:  cpu time    0.0102: real time    0.0104
    CHARGE:  cpu time    0.2232: real time    0.2232
    MIXING:  cpu time    0.0002: real time    0.0002
    --------------------------------------------
      LOOP:  cpu time   13.0553: real time   13.0603

 eigenvalue-minimisations  : 28236
 total energy-change (2. order) :-0.6357717E-01  (-0.2054857E+00)
 number of electron      60.0000113 magnetization 
 augmentation part       18.4633820 magnetization 

  free energy =  -0.366171096701E+02  energy without entropy=  -0.366148765264E+02


--------------------------------------------------------------------------------------------------------




--------------------------------------- Iteration      3(   2)  ---------------------------------------


    POTLOK:  cpu time    0.0018: real time    0.0036
    SETDIJ:  cpu time    0.0018: real time    0.0018
    EDDIAG:  cpu time    1.6457: real time    1.6459
  RMM-DIIS:  cpu time    2.4633: real time    2.4639
    ORTHCH:  cpu time    0.1344: real time    0.1344
       DOS:  cpu time    0.0103: real time    0.0103
    CHARGE:  cpu time    0.2309: real time    0.2309
    MIXING:  cpu time    0.0002: real time    0.0002
    --------------------------------------------
      LOOP:  cpu time    4.4883: real time    4.4909

 eigenvalue-minimisations  : 28080
 total energy-change (2. order) : 0.5135464E-01  (-0.9930342E-02)
 number of electron      60.0000114 magnetization 
 augmentation part       18.5709000 magnetization 

 eigenvalues of (default mixing * dielectric matrix)
  average eigenvalue GAMMA=   1.2668
  1.2668

  free energy =  -0.365657550265E+02  energy without entropy=  -0.365634076690E+02


--------------------------------------------------------------------------------------------------------




--------------------------------------- Iteration      3(   3)  ---------------------------------------


    POTLOK:  cpu time    0.0017: real time    0.0028
    SETDIJ:  cpu time    0.0017: real time    0.0017
    EDDIAG:  cpu time    1.6478: real time    1.6483
  RMM-DIIS:  cpu time    2.4898: real time    2.4902
    ORTHCH:  cpu time    0.1328: real time    0.1328
       DOS:  cpu time    0.0104: real time    0.0106
    CHARGE:  cpu time    0.2306: real time    0.2306
    MIXING:  cpu time    0.0002: real time    0.0002
    --------------------------------------------
      LOOP:  cpu time    4.5152: real time    4.5173

 eigenvalue-minimisations  : 28261
 total energy-change (2. order) : 0.4857374E-02  (-0.1717185E-02)
 number of electron      60.0000114 magnetization 
 augmentation part       18.6126394 magnetization 

 eigenvalues of (default mixing * dielectric matrix)
  average eigenvalue GAMMA=   1.9019
  1.4327  2.3712

  free energy =  -0.365608976521E+02  energy without entropy=  -0.365584958261E+02


--------------------------------------------------------------------------------------------------------




--------------------------------------- Iteration      3(   4)  ---------------------------------------


    POTLOK:  cpu time    0.0017: real time    0.0017
    SETDIJ:  cpu time    0.0018: real time    0.0018
    EDDIAG:  cpu time    1.6499: real time    1.6502
  RMM-DIIS:  cpu time    2.5573: real time    2.5578
    ORTHCH:  cpu time    0.1351: real time    0.1351
       DOS:  cpu time    0.0105: real time    0.0105
    CHARGE:  cpu time    0.2305: real time    0.2306
    MIXING:  cpu time    0.0003: real time    0.0003
    --------------------------------------------
      LOOP:  cpu time    4.5872: real time    4.5880

 eigenvalue-minimisations  : 28576
 total energy-change (2. order) : 0.1068755E-03  (-0.1550629E-03)
 number of electron      60.0000114 magnetization 
 augmentation part       18.6096594 magnetization 

 eigenvalues of (default mixing * dielectric matrix)
  average eigenvalue GAMMA=   1.6692
  1.4339  1.4339  2.1398

  free energy =  -0.365607907765E+02  energy without entropy=  -0.365583672114E+02


--------------------------------------------------------------------------------------------------------




--------------------------------------- Iteration      3(   5)  ---------------------------------------


    POTLOK:  cpu time    0.0017: real time    0.0017
    SETDIJ:  cpu time    0.0018: real time    0.0018
    EDDIAG:  cpu time    1.6534: real time    1.6538
  RMM-DIIS:  cpu time    2.4982: real time    2.4985
    ORTHCH:  cpu time    0.1339: real time    0.1340
       DOS:  cpu time    0.0103: real time    0.0103
    CHARGE:  cpu time    0.2300: real time    0.2300
    MIXING:  cpu time    0.0003: real time    0.0003
    --------------------------------------------
      LOOP:  cpu time    4.5295: real time    4.5304

 eigenvalue-minimisations  : 28397
 total energy-change (2. order) : 0.9664771E-05  (-0.1753788E-04)
 number of electron      60.0000114 magnetization 
 augmentation part       18.6136547 magnetization 

 eigenvalues of (default mixing * dielectric matrix)
  average eigenvalue GAMMA=   1.5618
  2.1804  1.8381  1.3723  0.8566

  free energy =  -0.365607811117E+02  energy without entropy=  -0.365583614198E+02


--------------------------------------------------------------------------------------------------------




--------------------------------------- Iteration      3(   6)  ---------------------------------------


    POTLOK:  cpu time    0.0017: real time    0.0029
    SETDIJ:  cpu time    0.0017: real time    0.0017
    EDDIAG:  cpu time    1.6459: real time    1.6463
  RMM-DIIS:  cpu time    2.4400: real time    2.4404
    ORTHCH:  cpu time    0.1344: real time    0.1344
       DOS:  cpu time    0.0103: real time    0.0102
    --------------------------------------------
      LOOP:  cpu time    4.2340: real time    4.2359

 eigenvalue-minimisations  : 27706
 total energy-change (2. order) :-0.4531676E-06  (-0.9688686E-06)
 number of electron      60.0000114 magnetization 
 augmentation part       18.6136547 magnetization 

  free energy =  -0.365607815649E+02  energy without entropy=  -0.365583629454E+02


--------------------------------------------------------------------------------------------------------




------------------------ aborting loop because EDIFF is reached ----------------------------------------


    CHARGE:  cpu time    0.2304: real time    0.2304
    FORLOC:  cpu time    0.0001: real time    0.0001
    FORNL :  cpu time    0.6725: real time    0.6727
    STRESS:  cpu time    1.1974: real time    1.1976
    FORCOR:  cpu time    0.0015: real time    0.0015
    FORHAR:  cpu time    0.0005: real time    0.0005
    MIXING:  cpu time    0.0003: real time    0.0003
    OFIELD:  cpu time    0.0000: real time    0.0000

  FORCE on cell =-STRESS in cart. coord.  units (eV):
  Direction    XX          YY          ZZ          XY          YZ          ZX
  --------------------------------------------------------------------------------------
  Alpha Z   362.75620   362.75620   362.75620
  Ewald   -1689.47825 -1660.07935 -1630.47936    -0.00000     0.00000     9.35005
  Hartree   121.50076   129.96104   138.95168     0.00000    -0.00000     2.93803
  E(xc)    -267.05027  -266.93002  -266.83134    -0.00000     0.00000     0.05084
  Local     246.97678   214.00145   179.30929     0.00000     0.00000   -10.71172
  n-local    28.01290    30.57466    33.47784     1.03135    -0.91452     0.66220
  augment   318.19385   315.86139   313.78540     0.00000    -0.00000    -0.72865
  Kinetic   877.18878   872.87419   869.11202     1.77900     0.37251    -1.43657
  Fock        0.00000     0.00000     0.00000     0.00000     0.00000     0.00000
  -------------------------------------------------------------------------------------
  Total      -1.89926    -0.98044     0.08173     0.00000     0.00000     0.12419
  in kB     -32.25647   -16.65157     1.38810     0.00000     0.00000     2.10920
  external pressure =      -15.84 kB  Pullay stress =        0.00 kB



--------------------------------------------------------------------------------------------------------



  FREE ENERGIE OF THE ION-ELECTRON SYSTEM (eV)
  ---------------------------------------------------
  free  energy   TOTEN  =       -36.56078156 eV

  energy  without entropy=      -36.55836295  energy(sigma->0) =      -36.55997536
 
 d Force = 0.0000000E+00[ 0.000E+00, 0.000E+00]  d Energy = 0.7249300E-02-0.725E-02
 d Force = 0.0000000E+00[ 0.000E+00, 0.000E+00]  d Ewald  = 0.1436746E+02-0.144E+02


--------------------------------------------------------------------------------------------------------


    POTLOK:  cpu time    0.0035: real time    0.0035


--------------------------------------------------------------------------------------------------------


 stress matrix after NEB project (eV)
     -1.89926      0.00000      0.12419
      0.00000     -0.98044      0.00000
      0.12419      0.00000      0.08173
  FORCES: max atom, RMS     0.000000    0.000000
  FORCE total and by dimension    0.000000    0.000000
  Stress total and by dimension    2.146153    1.899257
 Quasi-Newton relaxation of ions (Broydens 2nd method)
  g(Force)  = 0.199E-44   g(Stress)= 0.107E-04

 retain information from N=  1 steps
 eigenvalues of (default step * inverse Hessian matrix)
  average eigenvalue of G=   3.1201
 eigenvalue spectrum of G is  3.1201


--------------------------------------------------------------------------------------------------------


    WAVPRE:  cpu time    0.0028: real time    0.0028
    FEWALD:  cpu time    0.0007: real time    0.0014
    GENKIN:  cpu time    0.1017: real time    0.1017
    ORTHCH:  cpu time    0.2271: real time    0.2273
     LOOP+:  cpu time   37.8688: real time   37.8846


--------------------------------------- Iteration      4(   1)  ---------------------------------------


    POTLOK:  cpu time    0.0025: real time    0.0025
    SETDIJ:  cpu time    0.0018: real time    0.0018
     EDDAV:  cpu time   15.4353: real time   15.4390
       DOS:  cpu time    0.0103: real time    0.0103
    CHARGE:  cpu time    0.2339: real time    0.2339
    MIXING:  cpu time    0.0002: real time    0.0002
    --------------------------------------------
      LOOP:  cpu time   15.6840: real time   15.6877

 eigenvalue-minimisations  : 31176
 total energy-change (2. order) :-0.1288910E-03  (-0.4335834E-03)
 number of electron      60.0000114 magnetization 
 augmentation part       18.6202248 magnetization 

  free energy =  -0.365609100028E+02  energy without entropy=  -0.365584801555E+02


--------------------------------------------------------------------------------------------------------




--------------------------------------- Iteration      4(   2)  ---------------------------------------


    POTLOK:  cpu time    0.0018: real time    0.0018
    SETDIJ:  cpu time    0.0018: real time    0.0018
    EDDIAG:  cpu time    1.6498: real time    1.6503
  RMM-DIIS:  cpu time    2.4570: real time    2.4574
    ORTHCH:  cpu time    0.1341: real time    0.1341
       DOS:  cpu time    0.0104: real time    0.0104
    CHARGE:  cpu time    0.2320: real time    0.2322
    MIXING:  cpu time    0.0002: real time    0.0002
    --------------------------------------------
      LOOP:  cpu time    4.4871: real time    4.4882

 eigenvalue-minimisations  : 28080
 total energy-change (2. order) : 0.1083786E-03  (-0.2036373E-04)
 number of electron      60.0000114 magnetization 
 augmentation part       18.6153014 magnetization 

 eigenvalues of (default mixing * dielectric matrix)
  average eigenvalue GAMMA=   1.2467
  1.2467

  free energy =  -0.365608016241E+02  energy without entropy=  -0.365583755555E+02


--------------------------------------------------------------------------------------------------------




--------------------------------------- Iteration      4(   3)  ---------------------------------------


    POTLOK:  cpu time    0.0018: real time    0.0029
    SETDIJ:  cpu time    0.0018: real time    0.0018
    EDDIAG:  cpu time    1.6458: real time    1.6460
  RMM-DIIS:  cpu time    2.4789: real time    2.4795
    ORTHCH:  cpu time    0.1329: real time    0.1329
       DOS:  cpu time    0.0100: real time    0.0100
    CHARGE:  cpu time    0.2315: real time    0.2315
    MIXING:  cpu time    0.0002: real time    0.0002
    --------------------------------------------
      LOOP:  cpu time    4.5029: real time    4.5047

 eigenvalue-minimisations  : 28248
 total energy-change (2. order) : 0.1161934E-04  (-0.3476709E-05)
 number of electron      60.0000114 magnetization 
 augmentation part       18.6134185 magnetization 

 eigenvalues of (default mixing * dielectric matrix)
  average eigenvalue GAMMA=   1.8271
  1.4562  2.1980

  free energy =  -0.365607900048E+02  energy without entropy=  -0.365583664897E+02


--------------------------------------------------------------------------------------------------------




--------------------------------------- Iteration      4(   4)  ---------------------------------------


    POTLOK:  cpu time    0.0017: real time    0.0017
    SETDIJ:  cpu time    0.0017: real time    0.0017
    EDDIAG:  cpu time    1.6468: real time    1.6472
  RMM-DIIS:  cpu time    1.6386: real time    1.6389
    ORTHCH:  cpu time    0.1332: real time    0.1332
       DOS:  cpu time    0.0104: real time    0.0104
    CHARGE:  cpu time    0.2300: real time    0.2300
    MIXING:  cpu time    0.0003: real time    0.0003
    --------------------------------------------
      LOOP:  cpu time    3.6627: real time    3.6635

 eigenvalue-minimisations  : 16669
 total energy-change (2. order) : 0.1717190E-05  (-0.2883763E-06)
 number of electron      60.0000114 magnetization 
 augmentation part       18.6135519 magnetization 

 eigenvalues of (default mixing * dielectric matrix)
  average eigenvalue GAMMA=   1.7263
  2.3261  1.4263  1.4263

  free energy =  -0.365607882876E+02  energy without entropy=  -0.365583657529E+02


--------------------------------------------------------------------------------------------------------




--------------------------------------- Iteration      4(   5)  ---------------------------------------


    POTLOK:  cpu time    0.0017: real time    0.0017
    SETDIJ:  cpu time    0.0017: real time    0.0017
    EDDIAG:  cpu time    1.6880: real time    1.6885
  RMM-DIIS:  cpu time    1.4288: real time    1.4290
    ORTHCH:  cpu time    0.1328: real time    0.1328
       DOS:  cpu time    0.0100: real time    0.0100
    --------------------------------------------
      LOOP:  cpu time    3.2631: real time    3.2638

 eigenvalue-minimisations  : 14304
 total energy-change (2. order) : 0.4120011E-08  (-0.5691680E-07)
 number of electron      60.0000114 magnetization 
 augmentation part       18.6135519 magnetization 

  free energy =  -0.365607882835E+02  energy without entropy=  -0.365583656348E+02


--------------------------------------------------------------------------------------------------------




------------------------ aborting loop because EDIFF is reached ----------------------------------------


    CHARGE:  cpu time    0.2300: real time    0.2300
    FORLOC:  cpu time    0.0001: real time    0.0001
    FORNL :  cpu time    0.6640: real time    0.6642
    STRESS:  cpu time    1.1949: real time    1.1951
    FORCOR:  cpu time    0.0017: real time    0.0017
    FORHAR:  cpu time    0.0006: real time    0.0006
    MIXING:  cpu time    0.0003: real time    0.0003
    OFIELD:  cpu time    0.0000: real time    0.0000

  FORCE on cell =-STRESS in cart. coord.  units (eV):
  Direction    XX          YY          ZZ          XY          YZ          ZX
  --------------------------------------------------------------------------------------
  Alpha Z   362.60751   362.60751   362.60751
  Ewald   -1688.99821 -1659.59407 -1630.77613    -0.00000    -0.00000     9.33539
  Hartree   121.63887   130.10178   138.86538     0.00000    -0.00000     2.93460
  E(xc)    -267.03975  -266.91960  -266.82305    -0.00000    -0.00000     0.05084
  Local     246.56291   213.57719   179.78522    -0.00000     0.00000   -10.69600
  n-local    27.96473    30.52924    33.34557     1.03216    -0.91475     0.66020
  augment   318.17197   315.83968   313.81978    -0.00000    -0.00000    -0.72755
  Kinetic   877.12560   872.81352   869.15255     1.78264     0.37757    -1.43516
  Fock        0.00000     0.00000     0.00000     0.00000     0.00000     0.00000
  -------------------------------------------------------------------------------------
  Total      -1.96639    -1.04476    -0.02317     0.00000     0.00000     0.12231
  in kB     -33.38297   -17.73657    -0.39329     0.00000     0.00000     2.07645
  external pressure =      -17.17 kB  Pullay stress =        0.00 kB



--------------------------------------------------------------------------------------------------------



  FREE ENERGIE OF THE ION-ELECTRON SYSTEM (eV)
  ---------------------------------------------------
  free  energy   TOTEN  =       -36.56078828 eV

  energy  without entropy=      -36.55836563  energy(sigma->0) =      -36.55998073
 
 d Force = 0.0000000E+00[ 0.000E+00, 0.000E+00]  d Energy = 0.6718577E-05-0.672E-05
 d Force = 0.0000000E+00[ 0.000E+00, 0.000E+00]  d Ewald  =-0.6685445E+00 0.669E+00


--------------------------------------------------------------------------------------------------------


    POTLOK:  cpu time    0.0036: real time    0.0036


--------------------------------------------------------------------------------------------------------


 stress matrix after NEB project (eV)
     -1.96639      0.00000      0.12231
      0.00000     -1.04476      0.00000
      0.12231      0.00000     -0.02317
  FORCES: max atom, RMS     0.000000    0.000000
  FORCE total and by dimension    0.000000    0.000000
  Stress total and by dimension    2.233532    1.966391
 Quasi-Newton relaxation of ions (Broydens 2nd method)
  g(Force)  = 0.199E-44   g(Stress)= 0.863E-06

 retain information from N=  1 steps
 eigenvalues of (default step * inverse Hessian matrix)
  average eigenvalue of G=   2.4308
 eigenvalue spectrum of G is  2.4308


--------------------------------------------------------------------------------------------------------


  
 reached required accuracy - stopping structural energy minimisation
     LOOP+:  cpu time   33.7015: real time   33.7111
    4ORBIT:  cpu time    0.0000: real time    0.0000

 total amount of memory used by VASP MPI-rank0    66126. kBytes
=======================================================================

   base      :      30000. kBytes
   nonl-proj :      20927. kBytes
   fftplans  :        256. kBytes
   grid      :        327. kBytes
   one-center:         15. kBytes
   wavefun   :      14601. kBytes
 
  
  
 General timing and accounting informations for this job:
 ========================================================
  
                  Total CPU time used (sec):      210.588
                            User time (sec):      164.611
                          System time (sec):       45.978
                         Elapsed time (sec):      210.694
  
                   Maximum memory used (kb):      148476.
                   Average memory used (kb):           0.
  
                          Minor page faults:       109029
                          Major page faults:            0
                 Voluntary context switches:     14937463
