       N       E                     dE             d eps       ncg     rms          rms(c)
DAV:   1     0.487095487733E+03    0.48710E+03   -0.30615E+04  5800   0.114E+03
DAV:   2    -0.164806596753E+02   -0.50358E+03   -0.47246E+03  7264   0.260E+02
DAV:   3    -0.481849497396E+02   -0.31704E+02   -0.28632E+02  7016   0.603E+01
DAV:   4    -0.493021624899E+02   -0.11172E+01   -0.10747E+01  7232   0.115E+01
DAV:   5    -0.493417019644E+02   -0.39539E-01   -0.39062E-01  7688   0.193E+00    0.285E+01
RMM:   6    -0.474204060810E+02    0.19213E+01   -0.81274E+00  5800   0.131E+01    0.199E+01
RMM:   7    -0.583150497752E+02   -0.10895E+02   -0.19464E+01  5813   0.144E+01    0.277E+01
RMM:   8    -0.486086880331E+02    0.97064E+01   -0.62619E+00  5787   0.889E+00    0.134E+01
RMM:   9    -0.531615893755E+02   -0.45529E+01   -0.35952E+00  5784   0.559E+00    0.197E+01
RMM:  10    -0.487849519656E+02    0.43766E+01   -0.42973E+00  5782   0.643E+00    0.133E+01
RMM:  11    -0.466521004293E+02    0.21329E+01   -0.58855E-01  5762   0.287E+00    0.603E+00
RMM:  12    -0.463873666420E+02    0.26473E+00   -0.37178E-01  5809   0.197E+00    0.336E+00
RMM:  13    -0.463565038653E+02    0.30863E-01   -0.14891E-01  5801   0.128E+00    0.301E+00
RMM:  14    -0.463102145679E+02    0.46289E-01   -0.15417E-02  6068   0.373E-01    0.193E+00
RMM:  15    -0.462775946353E+02    0.32620E-01   -0.14894E-02  5824   0.407E-01    0.564E-01
RMM:  16    -0.462792582742E+02   -0.16636E-02   -0.20867E-03  5913   0.150E-01    0.723E-01
RMM:  17    -0.462754286087E+02    0.38297E-02   -0.84628E-04  5994   0.934E-02    0.325E-01
RMM:  18    -0.462743174641E+02    0.11111E-02   -0.41855E-04  5866   0.572E-02    0.130E-01
RMM:  19    -0.462742072300E+02    0.11023E-03   -0.12285E-04  5344   0.302E-02    0.734E-02
RMM:  20    -0.462741826192E+02    0.24611E-04   -0.63851E-05  4658   0.248E-02    0.474E-02
RMM:  21    -0.462741766880E+02    0.59313E-05   -0.11465E-05  3248   0.114E-02
   1 F= -.46274177E+02 E0= -.46270562E+02  d E =-.462742E+02
       N       E                     dE             d eps       ncg     rms          rms(c)
DAV:   1    -0.462750723914E+02   -0.88977E-03   -0.54181E-02  6168   0.862E-01    0.666E-02
RMM:   2    -0.462767705776E+02   -0.16982E-02   -0.98210E-04  5801   0.139E-01    0.416E-01
RMM:   3    -0.462754056332E+02    0.13649E-02   -0.41491E-04  5739   0.630E-02    0.186E-01
RMM:   4    -0.462752079280E+02    0.19771E-03   -0.45683E-05  4199   0.266E-02    0.894E-02
RMM:   5    -0.462751599221E+02    0.48006E-04   -0.27748E-05  3520   0.200E-02    0.534E-02
RMM:   6    -0.462751508171E+02    0.91050E-05   -0.83065E-06  3033   0.124E-02
   2 F= -.46275151E+02 E0= -.46271537E+02  d E =-.974129E-03
       N       E                     dE             d eps       ncg     rms          rms(c)
DAV:   1    -0.462759637328E+02   -0.80381E-03   -0.18099E+00  5760   0.497E+00    0.260E-01
RMM:   2    -0.463025257893E+02   -0.26562E-01   -0.23044E-02  5810   0.745E-01    0.171E+00
RMM:   3    -0.462824505533E+02    0.20075E-01   -0.18753E-03  5883   0.158E-01    0.773E-01
RMM:   4    -0.462802208479E+02    0.22297E-02   -0.13539E-03  5800   0.127E-01    0.595E-01
RMM:   5    -0.462783929886E+02    0.18279E-02   -0.12308E-03  5805   0.119E-01    0.318E-01
RMM:   6    -0.462779986952E+02    0.39429E-03   -0.52915E-04  5810   0.832E-02    0.169E-01
RMM:   7    -0.462776701596E+02    0.32854E-03   -0.19940E-04  5764   0.500E-02    0.302E-02
RMM:   8    -0.462776594574E+02    0.10702E-04   -0.80738E-05  5455   0.303E-02    0.182E-02
RMM:   9    -0.462776612609E+02   -0.18035E-05   -0.79690E-06  3081   0.107E-02
   3 F= -.46277661E+02 E0= -.46274066E+02  d E =-.251044E-02
       N       E                     dE             d eps       ncg     rms          rms(c)
DAV:   1    -0.462776883336E+02   -0.28876E-04   -0.34798E-03  6280   0.217E-01    0.119E-02
RMM:   2    -0.462778320504E+02   -0.14372E-03   -0.69301E-05  4842   0.363E-02    0.126E-01
RMM:   3    -0.462777009633E+02    0.13109E-03   -0.94618E-06  3009   0.128E-02    0.360E-02
RMM:   4    -0.462776966673E+02    0.42960E-05   -0.48071E-06  2977   0.882E-03
   4 F= -.46277697E+02 E0= -.46274106E+02  d E =-.354064E-04
       N       E                     dE             d eps       ncg     rms          rms(c)
DAV:   1    -0.462777296225E+02   -0.28659E-04   -0.24309E-03  5848   0.181E-01    0.131E-02
RMM:   2    -0.462778390921E+02   -0.10947E-03   -0.41626E-05  4148   0.294E-02    0.109E-01
RMM:   3    -0.462777370869E+02    0.10201E-03   -0.19673E-05  3303   0.164E-02    0.264E-02
RMM:   4    -0.462777342594E+02    0.28275E-05   -0.30418E-06  2968   0.804E-03
   5 F= -.46277734E+02 E0= -.46274143E+02  d E =-.375921E-04
       N       E                     dE             d eps       ncg     rms          rms(c)
DAV:   1    -0.462750735496E+02    0.26635E-02   -0.35222E+00  5760   0.687E+00    0.289E-01
RMM:   2    -0.462996009539E+02   -0.24527E-01   -0.47312E-02  5773   0.107E+00    0.152E+00
RMM:   3    -0.462793186337E+02    0.20282E-01   -0.43631E-03  5892   0.254E-01    0.214E-01
RMM:   4    -0.462797996746E+02   -0.48104E-03   -0.19616E-03  5778   0.150E-01    0.413E-01
RMM:   5    -0.462787612396E+02    0.10384E-02   -0.51312E-04  5798   0.872E-02    0.221E-01
RMM:   6    -0.462794868784E+02   -0.72564E-03   -0.83502E-04  5800   0.105E-01    0.305E-01
RMM:   7    -0.462786326227E+02    0.85426E-03   -0.37903E-04  5804   0.699E-02    0.124E-01
RMM:   8    -0.462784912992E+02    0.14132E-03   -0.62362E-05  4673   0.258E-02    0.176E-02
RMM:   9    -0.462784929004E+02   -0.16012E-05   -0.81827E-06  3149   0.114E-02
   6 F= -.46278493E+02 E0= -.46275041E+02  d E =-.758641E-03
       N       E                     dE             d eps       ncg     rms          rms(c)
DAV:   1    -0.462781945898E+02    0.29671E-03   -0.25948E-01  5760   0.186E+00    0.764E-02
RMM:   2    -0.462802842847E+02   -0.20897E-02   -0.34540E-03  5775   0.287E-01    0.451E-01
RMM:   3    -0.462784949348E+02    0.17893E-02   -0.31977E-04  5823   0.689E-02    0.694E-02
RMM:   4    -0.462785199101E+02   -0.24975E-04   -0.12960E-04  5556   0.389E-02    0.107E-01
RMM:   5    -0.462784543954E+02    0.65515E-04   -0.34912E-05  3793   0.237E-02    0.589E-02
RMM:   6    -0.462785044770E+02   -0.50082E-04   -0.66111E-05  5055   0.304E-02    0.793E-02
RMM:   7    -0.462784461794E+02    0.58298E-04   -0.27252E-05  3440   0.204E-02    0.314E-02
RMM:   8    -0.462784365845E+02    0.95949E-05   -0.57688E-06  3022   0.946E-03
   7 F= -.46278437E+02 E0= -.46274947E+02  d E =0.563159E-04
       N       E                     dE             d eps       ncg     rms          rms(c)
DAV:   1    -0.462784286032E+02    0.17576E-04   -0.26096E-03  5840   0.183E-01    0.100E-02
RMM:   2    -0.462784639085E+02   -0.35305E-04   -0.40884E-05  4097   0.305E-02    0.608E-02
RMM:   3    -0.462784322145E+02    0.31694E-04   -0.52316E-06  2953   0.103E-02    0.131E-02
RMM:   4    -0.462784343264E+02   -0.21119E-05   -0.30904E-06  2893   0.728E-03
   8 F= -.46278434E+02 E0= -.46274940E+02  d E =0.225818E-05
       N       E                     dE             d eps       ncg     rms          rms(c)
DAV:   1    -0.462784331226E+02   -0.90814E-06   -0.53218E-04  5824   0.859E-02    0.997E-03
RMM:   2    -0.462784617608E+02   -0.28638E-04   -0.11938E-05  3054   0.155E-02    0.563E-02
RMM:   3    -0.462784411047E+02    0.20656E-04   -0.73493E-06  3028   0.103E-02    0.302E-02
RMM:   4    -0.462784353030E+02    0.58017E-05   -0.14266E-06  2552   0.529E-03
   9 F= -.46278435E+02 E0= -.46274941E+02  d E =-.976619E-06
       N       E                     dE             d eps       ncg     rms          rms(c)
DAV:   1    -0.462784334384E+02    0.76663E-05   -0.36865E-03  5792   0.226E-01    0.163E-02
RMM:   2    -0.462784438573E+02   -0.10419E-04   -0.46003E-05  4356   0.348E-02    0.277E-02
RMM:   3    -0.462784426461E+02    0.12112E-05   -0.64471E-06  2982   0.111E-02
  10 F= -.46278443E+02 E0= -.46274948E+02  d E =-.734311E-05
       N       E                     dE             d eps       ncg     rms          rms(c)
DAV:   1    -0.462784473752E+02   -0.35179E-05   -0.33097E-04  6032   0.742E-02    0.353E-02
RMM:   2    -0.462797981759E+02   -0.13508E-02   -0.28157E-04  5675   0.509E-02    0.395E-01
RMM:   3    -0.462784686713E+02    0.13295E-02   -0.21769E-04  5655   0.445E-02    0.571E-02
RMM:   4    -0.462784423752E+02    0.26296E-04   -0.15050E-05  3217   0.157E-02    0.160E-02
RMM:   5    -0.462784416774E+02    0.69775E-06   -0.24641E-06  2945   0.606E-03
  11 F= -.46278442E+02 E0= -.46274947E+02  d E =0.968654E-06
       N       E                     dE             d eps       ncg     rms          rms(c)
DAV:   1    -0.462784443408E+02   -0.19656E-05   -0.16270E-04  6424   0.484E-02    0.630E-03
RMM:   2    -0.462784834065E+02   -0.39066E-04   -0.91897E-06  3053   0.116E-02    0.656E-02
RMM:   3    -0.462784447612E+02    0.38645E-04   -0.44702E-06  2992   0.814E-03    0.917E-03
RMM:   4    -0.462784444917E+02    0.26946E-06   -0.79247E-07  1800   0.415E-03
  12 F= -.46278444E+02 E0= -.46274953E+02  d E =-.281429E-05
       N       E                     dE             d eps       ncg     rms          rms(c)
DAV:   1    -0.462784581583E+02   -0.13397E-04   -0.57825E-03  5776   0.280E-01    0.123E-02
RMM:   2    -0.462784938248E+02   -0.35666E-04   -0.73276E-05  4911   0.432E-02    0.571E-02
RMM:   3    -0.462784655545E+02    0.28270E-04   -0.74861E-06  3005   0.120E-02    0.130E-02
RMM:   4    -0.462784660584E+02   -0.50390E-06   -0.39491E-06  2892   0.835E-03
  13 F= -.46278466E+02 E0= -.46274982E+02  d E =-.215666E-04
