 vasp.5.4.4.18Apr17-6-g9f103f2a35 (build Mar 22 2023 16:46:20) complex          
  
 executed on             LinuxIFC date 2025.06.15  11:36:52
 running on   64 total cores
 distrk:  each k-point on   64 cores,    1 groups
 distr:  one band on NCORES_PER_BAND=   8 cores,    8 groups


--------------------------------------------------------------------------------------------------------


 INCAR:
 POTCAR:    PAW_PBE Pt 04Feb2005                  
 POTCAR:    PAW_PBE Pt 04Feb2005                  
  local pseudopotential read in
  partial core-charges read in
  partial kinetic energy density read in
  atomic valenz-charges read in
  non local Contribution for L=           2  read in
    real space projection operators read in
  non local Contribution for L=           2  read in
    real space projection operators read in
  non local Contribution for L=           0  read in
    real space projection operators read in
  non local Contribution for L=           0  read in
    real space projection operators read in
  non local Contribution for L=           1  read in
    real space projection operators read in
  non local Contribution for L=           1  read in
    real space projection operators read in
    PAW grid and wavefunctions read in
 
   number of l-projection  operators is LMAX  =           6
   number of lm-projection operators is LMMAX =          18
 
  PAW_PBE Pt 04Feb2005                  :
 energy of atom  1       EATOM= -729.1176
 kinetic energy error for atom=    0.0056 (will be added to EATOM!!)
 
 
 POSCAR: Pt                                      
  positions in cartesian coordinates
  No initial velocities read in
 exchange correlation table for  LEXCH =        8
   RHO(1)=    0.500       N(1)  =     2000
   RHO(2)=  100.500       N(2)  =     4000

 VTST: version 3.2, (02/03/18)

 CHAIN: initializing optimizer
 
 OPT: Using VASP QUASI-newton optimizer
 CHAIN: Read ICHAIN            0
 
 POSCAR: Pt                                      
  positions in cartesian coordinates
  No initial velocities read in
 


--------------------------------------------------------------------------------------------------------


 ion  position               nearest neighbor table
   1  0.000  0.000  0.000-   2 2.81   5 2.81   5 2.81   4 2.81   4 2.81   4 2.81   4 2.81
   2  0.667  0.000  0.092-   1 2.81   4 2.81   4 2.81   5 2.81   5 2.81   5 2.81   5 2.81   6 2.81
                             6 2.81   3 2.81
   3  0.333  0.000  0.183-   7 2.81   8 2.81   8 2.81   6 2.81   6 2.81   6 2.81   6 2.81   5 2.81
                             5 2.81   2 2.81
   4  0.500  0.500  0.000-   5 2.81   2 2.81   2 2.81   1 2.81   1 2.81   1 2.81   1 2.81
   5  0.167  0.500  0.092-   4 2.81   1 2.81   1 2.81   2 2.81   2 2.81   2 2.81   2 2.81   3 2.81
                             3 2.81   6 2.81
   6  0.833  0.500  0.183-   8 2.81   7 2.81   7 2.81   3 2.81   3 2.81   3 2.81   3 2.81   2 2.81
                             2 2.81   5 2.81
   7  0.000  0.000  0.275-   3 2.81   6 2.81   6 2.81   8 2.81   8 2.81   8 2.81   8 2.81
   8  0.500  0.500  0.275-   6 2.81   3 2.81   3 2.81   7 2.81   7 2.81   7 2.81   7 2.81
 
  LATTYP: Found a simple orthorhombic cell.
 ALAT       =     2.8052849200
 B/A-ratio  =     1.7320508072
 C/A-ratio  =     8.9117507536
  
  Lattice vectors:
  
 A1 = (   0.0000000000,  -2.8052849200,   0.0000000000)
 A2 = (  -4.8588960100,   0.0000000000,   0.0000000000)
 A3 = (   0.0000000000,   0.0000000000, -25.0000000000)


Analysis of symmetry for initial positions (statically):
=====================================================================
 Subroutine PRICEL returns following result:
 
  LATTYP: Found a hexagonal cell.
 ALAT       =     2.8052849195
 C/A-ratio  =     8.9117507552
  
  Lattice vectors:
  
 A1 = (   2.4294480050,  -1.4026424600,   0.0000000000)
 A2 = (  -2.4294480050,  -1.4026424600,   0.0000000000)
 A3 = (   0.0000000000,   0.0000000000, -25.0000000000)
 
   2 primitive cells build up your supercell.
 

 Routine SETGRP: Setting up the symmetry group for a 
 simple orthorhombic supercell.


 Subroutine GETGRP returns: Found  4 space group operations
 (whereof  2 operations were pure point group operations)
 out of a pool of  8 trial point group operations.


The static configuration has the point symmetry C_1h.
 The point group associated with its full space group is C_2h.


Analysis of symmetry for dynamics (positions and initial velocities):
=====================================================================
 Subroutine PRICEL returns following result:
 
  LATTYP: Found a hexagonal cell.
 ALAT       =     2.8052849195
 C/A-ratio  =     8.9117507552
  
  Lattice vectors:
  
 A1 = (   2.4294480050,  -1.4026424600,   0.0000000000)
 A2 = (  -2.4294480050,  -1.4026424600,   0.0000000000)
 A3 = (   0.0000000000,   0.0000000000, -25.0000000000)
 
   2 primitive cells build up your supercell.
 

 Routine SETGRP: Setting up the symmetry group for a 
 simple orthorhombic supercell.


 Subroutine GETGRP returns: Found  4 space group operations
 (whereof  2 operations were pure point group operations)
 out of a pool of  8 trial point group operations.


The dynamic configuration has the point symmetry C_1h.
 The point group associated with its full space group is C_2h.


Analysis of constrained symmetry for selective dynamics:
=====================================================================
 Subroutine PRICEL returns following result:
 
  LATTYP: Found a hexagonal cell.
 ALAT       =     2.8052849195
 C/A-ratio  =     8.9117507552
  
  Lattice vectors:
  
 A1 = (   2.4294480050,  -1.4026424600,   0.0000000000)
 A2 = (  -2.4294480050,  -1.4026424600,   0.0000000000)
 A3 = (   0.0000000000,   0.0000000000, -25.0000000000)
 
   2 primitive cells build up your supercell.
 

 Routine SETGRP: Setting up the symmetry group for a 
 simple orthorhombic supercell.


 Subroutine GETGRP returns: Found  2 space group operations
 (whereof  2 operations were pure point group operations)
 out of a pool of  8 trial point group operations.


The constrained configuration has the point symmetry C_1h.


 Subroutine INISYM returns: Found  2 space group operations
 (whereof  2 operations are pure point group operations),
 and found     2 'primitive' translations

 
 
 KPOINTS: K-Spacing Value to Generate K-Mesh: 0.02

Automatic generation of k-mesh.
Space group operators:
 irot       det(A)        alpha          n_x          n_y          n_z        tau_x        tau_y        tau_z
    1     1.000000     0.000000     1.000000     0.000000     0.000000     0.000000     0.000000     0.000000
    2    -1.000000   180.000000     0.000000     1.000000     0.000000     0.000000     0.000000     0.000000
 
 Subroutine IBZKPT returns following result:
 ===========================================
 
 Found     60 irreducible k-points:
 
 Following reciprocal coordinates:
            Coordinates               Weight
  0.000000  0.000000  0.000000      1.000000
  0.100000  0.000000  0.000000      2.000000
  0.200000  0.000000  0.000000      2.000000
  0.300000  0.000000  0.000000      2.000000
  0.400000  0.000000  0.000000      2.000000
  0.500000  0.000000  0.000000      1.000000
  0.000000  0.055556  0.000000      2.000000
  0.100000  0.055556  0.000000      4.000000
  0.200000  0.055556  0.000000      4.000000
  0.300000  0.055556  0.000000      4.000000
  0.400000  0.055556  0.000000      4.000000
  0.500000  0.055556  0.000000      2.000000
  0.000000  0.111111  0.000000      2.000000
  0.100000  0.111111  0.000000      4.000000
  0.200000  0.111111  0.000000      4.000000
  0.300000  0.111111  0.000000      4.000000
  0.400000  0.111111  0.000000      4.000000
  0.500000  0.111111  0.000000      2.000000
  0.000000  0.166667  0.000000      2.000000
  0.100000  0.166667  0.000000      4.000000
  0.200000  0.166667  0.000000      4.000000
  0.300000  0.166667  0.000000      4.000000
  0.400000  0.166667  0.000000      4.000000
  0.500000  0.166667  0.000000      2.000000
  0.000000  0.222222  0.000000      2.000000
  0.100000  0.222222  0.000000      4.000000
  0.200000  0.222222  0.000000      4.000000
  0.300000  0.222222  0.000000      4.000000
  0.400000  0.222222  0.000000      4.000000
  0.500000  0.222222  0.000000      2.000000
  0.000000  0.277778  0.000000      2.000000
  0.100000  0.277778  0.000000      4.000000
  0.200000  0.277778  0.000000      4.000000
  0.300000  0.277778  0.000000      4.000000
  0.400000  0.277778  0.000000      4.000000
  0.500000  0.277778  0.000000      2.000000
  0.000000  0.333333  0.000000      2.000000
  0.100000  0.333333  0.000000      4.000000
  0.200000  0.333333  0.000000      4.000000
  0.300000  0.333333  0.000000      4.000000
  0.400000  0.333333  0.000000      4.000000
  0.500000  0.333333  0.000000      2.000000
  0.000000  0.388889  0.000000      2.000000
  0.100000  0.388889  0.000000      4.000000
  0.200000  0.388889  0.000000      4.000000
  0.300000  0.388889  0.000000      4.000000
  0.400000  0.388889  0.000000      4.000000
  0.500000  0.388889  0.000000      2.000000
  0.000000  0.444444  0.000000      2.000000
  0.100000  0.444444  0.000000      4.000000
  0.200000  0.444444  0.000000      4.000000
  0.300000  0.444444  0.000000      4.000000
  0.400000  0.444444  0.000000      4.000000
  0.500000  0.444444  0.000000      2.000000
  0.000000  0.500000  0.000000      1.000000
  0.100000  0.500000  0.000000      2.000000
  0.200000  0.500000  0.000000      2.000000
  0.300000  0.500000  0.000000      2.000000
  0.400000  0.500000  0.000000      2.000000
  0.500000  0.500000  0.000000      1.000000
 
 Following cartesian coordinates:
            Coordinates               Weight
  0.000000  0.000000  0.000000      1.000000
  0.020581  0.000000  0.000000      2.000000
  0.041162  0.000000  0.000000      2.000000
  0.061742  0.000000  0.000000      2.000000
  0.082323  0.000000  0.000000      2.000000
  0.102904  0.000000  0.000000      1.000000
  0.000000  0.019804  0.000000      2.000000
  0.020581  0.019804  0.000000      4.000000
  0.041162  0.019804  0.000000      4.000000
  0.061742  0.019804  0.000000      4.000000
  0.082323  0.019804  0.000000      4.000000
  0.102904  0.019804  0.000000      2.000000
  0.000000  0.039608  0.000000      2.000000
  0.020581  0.039608  0.000000      4.000000
  0.041162  0.039608  0.000000      4.000000
  0.061742  0.039608  0.000000      4.000000
  0.082323  0.039608  0.000000      4.000000
  0.102904  0.039608  0.000000      2.000000
  0.000000  0.059412  0.000000      2.000000
  0.020581  0.059412  0.000000      4.000000
  0.041162  0.059412  0.000000      4.000000
  0.061742  0.059412  0.000000      4.000000
  0.082323  0.059412  0.000000      4.000000
  0.102904  0.059412  0.000000      2.000000
  0.000000  0.079216  0.000000      2.000000
  0.020581  0.079216  0.000000      4.000000
  0.041162  0.079216  0.000000      4.000000
  0.061742  0.079216  0.000000      4.000000
  0.082323  0.079216  0.000000      4.000000
  0.102904  0.079216  0.000000      2.000000
  0.000000  0.099019  0.000000      2.000000
  0.020581  0.099019  0.000000      4.000000
  0.041162  0.099019  0.000000      4.000000
  0.061742  0.099019  0.000000      4.000000
  0.082323  0.099019  0.000000      4.000000
  0.102904  0.099019  0.000000      2.000000
  0.000000  0.118823  0.000000      2.000000
  0.020581  0.118823  0.000000      4.000000
  0.041162  0.118823  0.000000      4.000000
  0.061742  0.118823  0.000000      4.000000
  0.082323  0.118823  0.000000      4.000000
  0.102904  0.118823  0.000000      2.000000
  0.000000  0.138627  0.000000      2.000000
  0.020581  0.138627  0.000000      4.000000
  0.041162  0.138627  0.000000      4.000000
  0.061742  0.138627  0.000000      4.000000
  0.082323  0.138627  0.000000      4.000000
  0.102904  0.138627  0.000000      2.000000
  0.000000  0.158431  0.000000      2.000000
  0.020581  0.158431  0.000000      4.000000
  0.041162  0.158431  0.000000      4.000000
  0.061742  0.158431  0.000000      4.000000
  0.082323  0.158431  0.000000      4.000000
  0.102904  0.158431  0.000000      2.000000
  0.000000  0.178235  0.000000      1.000000
  0.020581  0.178235  0.000000      2.000000
  0.041162  0.178235  0.000000      2.000000
  0.061742  0.178235  0.000000      2.000000
  0.082323  0.178235  0.000000      2.000000
  0.102904  0.178235  0.000000      1.000000
 


--------------------------------------------------------------------------------------------------------




 Dimension of arrays:
   k-points           NKPTS =     60   k-points in BZ     NKDIM =     60   number of bands    NBANDS=     48
   number of dos      NEDOS =    301   number of ions     NIONS =      8
   non local maximal  LDIM  =      6   non local SUM 2l+1 LMDIM =     18
   total plane-waves  NPLWV =  42336
   max r-space proj   IRMAX =      1   max aug-charges    IRDMAX=   7723
   dimension x,y,z NGX =    24 NGY =   14 NGZ =  126
   dimension x,y,z NGXF=    48 NGYF=   28 NGZF=  252
   support grid    NGXF=    48 NGYF=   28 NGZF=  252
   ions per type =               8
   NGX,Y,Z   is equivalent  to a cutoff of   8.21,  8.30,  8.38 a.u.
   NGXF,Y,Z  is equivalent  to a cutoff of  16.42, 16.59, 16.76 a.u.

 SYSTEM =  Cu111                                   
 POSCAR =  Pt                                      

 Startparameter for this run:
   NWRITE =      0    write-flag & timer
   PREC   = normal    normal or accurate (medium, high low for compatibility)
   ISTART =      0    job   : 0-new  1-cont  2-samecut
   ICHARG =      2    charge: 1-file 2-atom 10-const
   ISPIN  =      1    spin polarized calculation?
   LNONCOLLINEAR =      F non collinear calculations
   LSORBIT =      F    spin-orbit coupling
   INIWAV =      1    electr: 0-lowe 1-rand  2-diag
   LASPH  =      F    aspherical Exc in radial PAW
   METAGGA=      F    non-selfconsistent MetaGGA calc.

 Electronic Relaxation 1
   ENCUT  =  400.0 eV  29.40 Ry    5.42 a.u.   7.92  4.57 40.77*2*pi/ulx,y,z
   ENINI  =  400.0     initial cutoff
   ENAUG  =  359.0 eV  augmentation charge cutoff
   NELM   =     60;   NELMIN=  2; NELMDL=  0     # of ELM steps 
   EDIFF  = 0.1E-04   stopping-criterion for ELM
   LREAL  =      F    real-space projection
   NLSPLINE    = F    spline interpolate recip. space projectors
   LCOMPAT=      F    compatible to vasp.4.4
   GGA_COMPAT  = T    GGA compatible to vasp.4.4-vasp.4.6
   LMAXPAW     = -100 max onsite density
   LMAXMIX     =    2 max onsite mixed and CHGCAR
   VOSKOWN=      0    Vosko Wilk Nusair interpolation
   ROPT   =    0.00000
 Ionic relaxation
   EDIFFG = -.1E-01   stopping-criterion for IOM
   NSW    =     50    number of steps for IOM
   NBLOCK =      1;   KBLOCK =     50    inner block; outer block 
   IBRION =      1    ionic relax: 0-MD 1-quasi-New 2-CG
   NFREE  =      0    steps in history (QN), initial steepest desc. (CG)
   ISIF   =      2    stress and relaxation
   IWAVPR =     11    prediction:  0-non 1-charg 2-wave 3-comb
   ISYM   =      2    0-nonsym 1-usesym 2-fastsym
   LCORR  =      T    Harris-Foulkes like correction to forces

   POTIM  = 0.1000    time-step for ionic-motion
   TEIN   =    0.0    initial temperature
   TEBEG  =    0.0;   TEEND  =   0.0 temperature during run
   SMASS  =  -3.00    Nose mass-parameter (am)
   estimated Nose-frequenzy (Omega)   =  0.10E-29 period in steps =****** mass=  -0.540E-27a.u.
   SCALEE = 1.0000    scale energy and forces
   NPACO  =    256;   APACO  = 16.0  distance and # of slots for P.C.
   PSTRESS=    0.0 pullay stress

  Mass of Ions in am
   POMASS = 195.08
  Ionic Valenz
   ZVAL   =  10.00
  Atomic Wigner-Seitz radii
   RWIGS  =  -1.00
  virtual crystal weights 
   VCA    =   1.00
   NELECT =      80.0000    total number of electrons
   NUPDOWN=      -1.0000    fix difference up-down

 DOS related values:
   EMIN   =  10.00;   EMAX   =-10.00  energy-range for DOS
   EFERMI =   0.00
   ISMEAR =     1;   SIGMA  =   0.10  broadening in eV -4-tet -1-fermi 0-gaus

 Electronic relaxation 2 (details)
   IALGO  =     68    algorithm
   LDIAG  =      T    sub-space diagonalisation (order eigenvalues)
   LSUBROT=      F    optimize rotation matrix (better conditioning)
   TURBO    =      0    0=normal 1=particle mesh
   IRESTART =      0    0=no restart 2=restart with 2 vectors
   NREBOOT  =      0    no. of reboots
   NMIN     =      0    reboot dimension
   EREF     =   0.00    reference energy to select bands
   IMIX   =      4    mixing-type and parameters
     AMIX     =   0.40;   BMIX     =  1.00
     AMIX_MAG =   1.60;   BMIX_MAG =  1.00
     AMIN     =   0.10
     WC   =   100.;   INIMIX=   1;  MIXPRE=   1;  MAXMIX= -45

 Intra band minimization:
   WEIMIN = 0.0010     energy-eigenvalue tresh-hold
   EBREAK =  0.52E-07  absolut break condition
   DEPER  =   0.30     relativ break condition  

   TIME   =   0.40     timestep for ELM

  volume/ion in A,a.u.               =      42.60       287.45
  Fermi-wavevector in a.u.,A,eV,Ry     =   1.009919  1.908471 13.877083  1.019937
  Thomas-Fermi vector in A             =   2.142877
 
 Write flags
   LWAVE        =      F    write WAVECAR
   LDOWNSAMPLE  =      F    k-point downsampling of WAVECAR
   LCHARG       =      F    write CHGCAR
   LVTOT        =      F    write LOCPOT, total local potential
   LVHAR        =      F    write LOCPOT, Hartree potential only
   LELF         =      F    write electronic localiz. function (ELF)
   LORBIT       =      0    0 simple, 1 ext, 2 COOP (PROOUT), +10 PAW based schemes


 Dipole corrections
   LMONO  =      F    monopole corrections only (constant potential shift)
   LDIPOL =      T    correct potential (dipole corrections)
   IDIPOL =      3    1-x, 2-y, 3-z, 4-all directions 
   EPSILON=  1.0000000 bulk dielectric constant

 Exchange correlation treatment:
   GGA     =    --    GGA type
   LEXCH   =     8    internal setting for exchange type
   VOSKOWN=      0    Vosko Wilk Nusair interpolation
   LHFCALC =     F    Hartree Fock is set to
   LHFONE  =     F    Hartree Fock one center treatment
   AEXX    =    0.0000 exact exchange contribution

 Linear response parameters
   LEPSILON=     F    determine dielectric tensor
   LRPA    =     F    only Hartree local field effects (RPA)
   LNABLA  =     F    use nabla operator in PAW spheres
   LVEL    =     F    velocity operator in full k-point grid
   LINTERFAST=   F  fast interpolation
   KINTER  =     0    interpolate to denser k-point grid
   CSHIFT  =0.1000    complex shift for real part using Kramers Kronig
   OMEGAMAX=  -1.0    maximum frequency
   DEG_THRESHOLD= 0.2000000E-02 threshold for treating states as degnerate
   RTIME   =   -0.100 relaxation time in fs
  (WPLASMAI=    0.000 imaginary part of plasma frequency in eV, 0.658/RTIME)
   DFIELD  = 0.0000000 0.0000000 0.0000000 field for delta impulse in time
 
 Orbital magnetization related:
   ORBITALMAG=     F  switch on orbital magnetization
   LCHIMAG   =     F  perturbation theory with respect to B field
   DQ        =  0.001000  dq finite difference perturbation B field
   LLRAUG    =     F  two centre corrections for induced B field



--------------------------------------------------------------------------------------------------------


 quasi-Newton-method for relaxation of ions
   using selective dynamics as specified on POSCAR
   WARNING: If single coordinates had been selected the selection of coordinates
            is made according to the corresponding   d i r e c t   coordinates!
            Don't support selection of single cartesian coordinates -- sorry ...
  !
 charge density and potential will be updated during run
 non-spin polarized calculation
 RMM-DIIS sequential band-by-band and
  variant of blocked Davidson during initial phase
 perform sub-space diagonalisation
    before iterative eigenvector-optimisation
 modified Broyden-mixing scheme, WC =      100.0
 initial mixing is a Kerker type mixing with AMIX =  0.4000 and BMIX =      1.0000
 Hartree-type preconditioning will be used
 using additional bands            8
 reciprocal scheme for non local part
 use partial core corrections
 calculate Harris-corrections to forces 
   (improved forces if not selfconsistent)
 use gradient corrections 
 use of overlap-Matrix (Vanderbilt PP)
 Methfessel and Paxton  Order N= 1 SIGMA  =   0.10


--------------------------------------------------------------------------------------------------------


  energy-cutoff  :      400.00
  volume of cell :      340.76
      direct lattice vectors                 reciprocal lattice vectors
     4.858896010  0.000000000  0.000000000     0.205808068  0.000000000  0.000000000
     0.000000000  2.805284920  0.000000000     0.000000000  0.356470030  0.000000000
     0.000000000  0.000000000 25.000000000     0.000000000  0.000000000  0.040000000

  length of vectors
     4.858896010  2.805284920 25.000000000     0.205808068  0.356470030  0.040000000


 
 k-points in units of 2pi/SCALE and weight: K-Spacing Value to Generate K-Mesh: 0.02
   0.00000000  0.00000000  0.00000000       0.006
   0.02058081  0.00000000  0.00000000       0.011
   0.04116161  0.00000000  0.00000000       0.011
   0.06174242  0.00000000  0.00000000       0.011
   0.08232323  0.00000000  0.00000000       0.011
   0.10290403  0.00000000  0.00000000       0.006
   0.00000000  0.01980389  0.00000000       0.011
   0.02058081  0.01980389  0.00000000       0.022
   0.04116161  0.01980389  0.00000000       0.022
   0.06174242  0.01980389  0.00000000       0.022
   0.08232323  0.01980389  0.00000000       0.022
   0.10290403  0.01980389  0.00000000       0.011
   0.00000000  0.03960778  0.00000000       0.011
   0.02058081  0.03960778  0.00000000       0.022
   0.04116161  0.03960778  0.00000000       0.022
   0.06174242  0.03960778  0.00000000       0.022
   0.08232323  0.03960778  0.00000000       0.022
   0.10290403  0.03960778  0.00000000       0.011
   0.00000000  0.05941167  0.00000000       0.011
   0.02058081  0.05941167  0.00000000       0.022
   0.04116161  0.05941167  0.00000000       0.022
   0.06174242  0.05941167  0.00000000       0.022
   0.08232323  0.05941167  0.00000000       0.022
   0.10290403  0.05941167  0.00000000       0.011
   0.00000000  0.07921556  0.00000000       0.011
   0.02058081  0.07921556  0.00000000       0.022
   0.04116161  0.07921556  0.00000000       0.022
   0.06174242  0.07921556  0.00000000       0.022
   0.08232323  0.07921556  0.00000000       0.022
   0.10290403  0.07921556  0.00000000       0.011
   0.00000000  0.09901945  0.00000000       0.011
   0.02058081  0.09901945  0.00000000       0.022
   0.04116161  0.09901945  0.00000000       0.022
   0.06174242  0.09901945  0.00000000       0.022
   0.08232323  0.09901945  0.00000000       0.022
   0.10290403  0.09901945  0.00000000       0.011
   0.00000000  0.11882334  0.00000000       0.011
   0.02058081  0.11882334  0.00000000       0.022
   0.04116161  0.11882334  0.00000000       0.022
   0.06174242  0.11882334  0.00000000       0.022
   0.08232323  0.11882334  0.00000000       0.022
   0.10290403  0.11882334  0.00000000       0.011
   0.00000000  0.13862723  0.00000000       0.011
   0.02058081  0.13862723  0.00000000       0.022
   0.04116161  0.13862723  0.00000000       0.022
   0.06174242  0.13862723  0.00000000       0.022
   0.08232323  0.13862723  0.00000000       0.022
   0.10290403  0.13862723  0.00000000       0.011
   0.00000000  0.15843112  0.00000000       0.011
   0.02058081  0.15843112  0.00000000       0.022
   0.04116161  0.15843112  0.00000000       0.022
   0.06174242  0.15843112  0.00000000       0.022
   0.08232323  0.15843112  0.00000000       0.022
   0.10290403  0.15843112  0.00000000       0.011
   0.00000000  0.17823502  0.00000000       0.006
   0.02058081  0.17823502  0.00000000       0.011
   0.04116161  0.17823502  0.00000000       0.011
   0.06174242  0.17823502  0.00000000       0.011
   0.08232323  0.17823502  0.00000000       0.011
   0.10290403  0.17823502  0.00000000       0.006
 
 k-points in reciprocal lattice and weights: K-Spacing Value to Generate K-Mesh: 0.02
   0.00000000  0.00000000  0.00000000       0.006
   0.10000000  0.00000000  0.00000000       0.011
   0.20000000  0.00000000  0.00000000       0.011
   0.30000000  0.00000000  0.00000000       0.011
   0.40000000  0.00000000  0.00000000       0.011
   0.50000000  0.00000000  0.00000000       0.006
   0.00000000  0.05555556  0.00000000       0.011
   0.10000000  0.05555556  0.00000000       0.022
   0.20000000  0.05555556  0.00000000       0.022
   0.30000000  0.05555556  0.00000000       0.022
   0.40000000  0.05555556  0.00000000       0.022
   0.50000000  0.05555556  0.00000000       0.011
   0.00000000  0.11111111  0.00000000       0.011
   0.10000000  0.11111111  0.00000000       0.022
   0.20000000  0.11111111  0.00000000       0.022
   0.30000000  0.11111111  0.00000000       0.022
   0.40000000  0.11111111  0.00000000       0.022
   0.50000000  0.11111111  0.00000000       0.011
   0.00000000  0.16666667  0.00000000       0.011
   0.10000000  0.16666667  0.00000000       0.022
   0.20000000  0.16666667  0.00000000       0.022
   0.30000000  0.16666667  0.00000000       0.022
   0.40000000  0.16666667  0.00000000       0.022
   0.50000000  0.16666667  0.00000000       0.011
   0.00000000  0.22222222  0.00000000       0.011
   0.10000000  0.22222222  0.00000000       0.022
   0.20000000  0.22222222  0.00000000       0.022
   0.30000000  0.22222222  0.00000000       0.022
   0.40000000  0.22222222  0.00000000       0.022
   0.50000000  0.22222222  0.00000000       0.011
   0.00000000  0.27777778  0.00000000       0.011
   0.10000000  0.27777778  0.00000000       0.022
   0.20000000  0.27777778  0.00000000       0.022
   0.30000000  0.27777778  0.00000000       0.022
   0.40000000  0.27777778  0.00000000       0.022
   0.50000000  0.27777778  0.00000000       0.011
   0.00000000  0.33333333  0.00000000       0.011
   0.10000000  0.33333333  0.00000000       0.022
   0.20000000  0.33333333  0.00000000       0.022
   0.30000000  0.33333333  0.00000000       0.022
   0.40000000  0.33333333  0.00000000       0.022
   0.50000000  0.33333333  0.00000000       0.011
   0.00000000  0.38888889  0.00000000       0.011
   0.10000000  0.38888889  0.00000000       0.022
   0.20000000  0.38888889  0.00000000       0.022
   0.30000000  0.38888889  0.00000000       0.022
   0.40000000  0.38888889  0.00000000       0.022
   0.50000000  0.38888889  0.00000000       0.011
   0.00000000  0.44444444  0.00000000       0.011
   0.10000000  0.44444444  0.00000000       0.022
   0.20000000  0.44444444  0.00000000       0.022
   0.30000000  0.44444444  0.00000000       0.022
   0.40000000  0.44444444  0.00000000       0.022
   0.50000000  0.44444444  0.00000000       0.011
   0.00000000  0.50000000  0.00000000       0.006
   0.10000000  0.50000000  0.00000000       0.011
   0.20000000  0.50000000  0.00000000       0.011
   0.30000000  0.50000000  0.00000000       0.011
   0.40000000  0.50000000  0.00000000       0.011
   0.50000000  0.50000000  0.00000000       0.006
 
 position of ions in fractional coordinates (direct lattice) 
   0.00000000  0.00000000  0.00000000
   0.66666667  0.00000000  0.09162022
   0.33333333  0.00000000  0.18324044
   0.50000000  0.50000000  0.00000000
   0.16666667  0.50000000  0.09162022
   0.83333333  0.50000000  0.18324044
   0.00000000  0.00000000  0.27486067
   0.50000000  0.50000000  0.27486067
 
 position of ions in cartesian coordinates  (Angst):
   0.00000000  0.00000000  0.00000000
   3.23926402  0.00000000  2.29050552
   1.61963199  0.00000000  4.58101111
   2.42944800  1.40264246  0.00000000
   0.80981602  1.40264246  2.29050552
   4.04907999  1.40264246  4.58101111
   0.00000000  0.00000000  6.87151663
   2.42944800  1.40264246  6.87151663
 


--------------------------------------------------------------------------------------------------------


 k-point  1 :   0.0000 0.0000 0.0000  plane waves:    6179
 k-point  2 :   0.1000 0.0000 0.0000  plane waves:    6190
 k-point  3 :   0.2000 0.0000 0.0000  plane waves:    6218
 k-point  4 :   0.3000 0.0000 0.0000  plane waves:    6244
 k-point  5 :   0.4000 0.0000 0.0000  plane waves:    6242
 k-point  6 :   0.5000 0.0000 0.0000  plane waves:    6268
 k-point  7 :   0.0000 0.0556 0.0000  plane waves:    6193
 k-point  8 :   0.1000 0.0556 0.0000  plane waves:    6189
 k-point  9 :   0.2000 0.0556 0.0000  plane waves:    6213
 k-point 10 :   0.3000 0.0556 0.0000  plane waves:    6227
 k-point 11 :   0.4000 0.0556 0.0000  plane waves:    6254
 k-point 12 :   0.5000 0.0556 0.0000  plane waves:    6272
 k-point 13 :   0.0000 0.1111 0.0000  plane waves:    6201
 k-point 14 :   0.1000 0.1111 0.0000  plane waves:    6211
 k-point 15 :   0.2000 0.1111 0.0000  plane waves:    6200
 k-point 16 :   0.3000 0.1111 0.0000  plane waves:    6224
 k-point 17 :   0.4000 0.1111 0.0000  plane waves:    6239
 k-point 18 :   0.5000 0.1111 0.0000  plane waves:    6238
 k-point 19 :   0.0000 0.1667 0.0000  plane waves:    6217
 k-point 20 :   0.1000 0.1667 0.0000  plane waves:    6215
 k-point 21 :   0.2000 0.1667 0.0000  plane waves:    6201
 k-point 22 :   0.3000 0.1667 0.0000  plane waves:    6208
 k-point 23 :   0.4000 0.1667 0.0000  plane waves:    6212
 k-point 24 :   0.5000 0.1667 0.0000  plane waves:    6246
 k-point 25 :   0.0000 0.2222 0.0000  plane waves:    6189
 k-point 26 :   0.1000 0.2222 0.0000  plane waves:    6192
 k-point 27 :   0.2000 0.2222 0.0000  plane waves:    6205
 k-point 28 :   0.3000 0.2222 0.0000  plane waves:    6198
 k-point 29 :   0.4000 0.2222 0.0000  plane waves:    6213
 k-point 30 :   0.5000 0.2222 0.0000  plane waves:    6206
 k-point 31 :   0.0000 0.2778 0.0000  plane waves:    6163
 k-point 32 :   0.1000 0.2778 0.0000  plane waves:    6176
 k-point 33 :   0.2000 0.2778 0.0000  plane waves:    6199
 k-point 34 :   0.3000 0.2778 0.0000  plane waves:    6201
 k-point 35 :   0.4000 0.2778 0.0000  plane waves:    6197
 k-point 36 :   0.5000 0.2778 0.0000  plane waves:    6208
 k-point 37 :   0.0000 0.3333 0.0000  plane waves:    6165
 k-point 38 :   0.1000 0.3333 0.0000  plane waves:    6170
 k-point 39 :   0.2000 0.3333 0.0000  plane waves:    6182
 k-point 40 :   0.3000 0.3333 0.0000  plane waves:    6193
 k-point 41 :   0.4000 0.3333 0.0000  plane waves:    6166
 k-point 42 :   0.5000 0.3333 0.0000  plane waves:    6170
 k-point 43 :   0.0000 0.3889 0.0000  plane waves:    6163
 k-point 44 :   0.1000 0.3889 0.0000  plane waves:    6143
 k-point 45 :   0.2000 0.3889 0.0000  plane waves:    6170
 k-point 46 :   0.3000 0.3889 0.0000  plane waves:    6162
 k-point 47 :   0.4000 0.3889 0.0000  plane waves:    6161
 k-point 48 :   0.5000 0.3889 0.0000  plane waves:    6154
 k-point 49 :   0.0000 0.4444 0.0000  plane waves:    6126
 k-point 50 :   0.1000 0.4444 0.0000  plane waves:    6133
 k-point 51 :   0.2000 0.4444 0.0000  plane waves:    6150
 k-point 52 :   0.3000 0.4444 0.0000  plane waves:    6146
 k-point 53 :   0.4000 0.4444 0.0000  plane waves:    6155
 k-point 54 :   0.5000 0.4444 0.0000  plane waves:    6144
 k-point 55 :   0.0000 0.5000 0.0000  plane waves:    6174
 k-point 56 :   0.1000 0.5000 0.0000  plane waves:    6134
 k-point 57 :   0.2000 0.5000 0.0000  plane waves:    6146
 k-point 58 :   0.3000 0.5000 0.0000  plane waves:    6162
 k-point 59 :   0.4000 0.5000 0.0000  plane waves:    6160
 k-point 60 :   0.5000 0.5000 0.0000  plane waves:    6160

 maximum and minimum number of plane-waves per node :       802      753

 maximum number of plane-waves:      6272
 maximum index in each direction: 
   IXMAX=    7   IYMAX=    4   IZMAX=   40
   IXMIN=   -8   IYMIN=   -5   IZMIN=  -40


 parallel 3D FFT for wavefunctions:
    minimum data exchange during FFTs selected (reduces bandwidth)
 parallel 3D FFT for charge:
    minimum data exchange during FFTs selected (reduces bandwidth)


 total amount of memory used by VASP MPI-rank0    42852. kBytes
=======================================================================

   base      :      30000. kBytes
   nonl-proj :       7084. kBytes
   fftplans  :        409. kBytes
   grid      :        552. kBytes
   one-center:         15. kBytes
   wavefun   :       4792. kBytes
 
     INWAV:  cpu time    0.0000: real time    0.0000
 Broyden mixing: mesh for mixing (old mesh)
   NGX = 15   NGY =  9   NGZ = 81
  (NGX  = 48   NGY  = 28   NGZ  =252)
  gives a total of  10935 points

 initial charge density was supplied:
 charge density of overlapping atoms calculated
 number of electron      80.0000000 magnetization 
 keeping initial charge density in first step


--------------------------------------------------------------------------------------------------------


 Maximum index for augmentation-charges          460 (set IRDMAX)


--------------------------------------------------------------------------------------------------------


 First call to EWALD:  gamma=   0.254
 Maximum number of real-space cells 4x 6x 1
 Maximum number of reciprocal cells 2x 1x 9

    FEWALD:  cpu time    0.0024: real time    0.0067


--------------------------------------- Iteration      1(   1)  ---------------------------------------


    POTLOK:  cpu time    0.0176: real time    0.0630
    SETDIJ:  cpu time    0.0082: real time    0.0133
     EDDAV:  cpu time    2.0095: real time    2.1528
       DOS:  cpu time    0.0026: real time    0.0080
    --------------------------------------------
      LOOP:  cpu time    2.0379: real time    2.2371

 eigenvalue-minimisations  :  5800
 total energy-change (2. order) : 0.4870955E+03  (-0.3061479E+04)
 number of electron      80.0000000 magnetization 
 augmentation part       80.0000000 magnetization 

 DIPCOR: dipole corrections for dipol
 direction  3 min pos   169,
 dipolmoment           0.000000      0.000000      0.000035 electrons x Angstroem
 Tr[quadrupol]      -256.811687

 energy correction for charged system         0.000000 eV
 dipol+quadrupol energy correction           -0.000000 eV
 added-field ion interaction          0.001101 eV  (added to PSCEN)


 Free energy of the ion-electron system (eV)
  ---------------------------------------------------
  alpha Z        PSCENC =       178.53277461
  Ewald energy   TEWEN  =     30156.39394529
  -Hartree energ DENC   =    -36295.46374428
  -exchange      EXHF   =         0.00000000
  -V(xc)+E(xc)   XCENC  =        26.84664855
  PAW double counting   =      5568.98828343    -5342.72235985
  entropy T*S    EENTRO =        -0.00041169
  eigenvalues    EBANDS =       361.62473721
  atomic energy  EATOM  =      5832.89561447
  Solvation  Ediel_sol  =         0.00000000
  ---------------------------------------------------
  free energy    TOTEN  =       487.09548773 eV

  energy without entropy =      487.09589943  energy(sigma->0) =      487.09562496


--------------------------------------------------------------------------------------------------------




--------------------------------------- Iteration      1(   2)  ---------------------------------------


     EDDAV:  cpu time    3.5063: real time    3.7056
       DOS:  cpu time    0.0022: real time    0.0022
    --------------------------------------------
      LOOP:  cpu time    3.5086: real time    3.7078

 eigenvalue-minimisations  :  7264
 total energy-change (2. order) :-0.5035761E+03  (-0.4724608E+03)
 number of electron      80.0000000 magnetization 
 augmentation part       80.0000000 magnetization 

 DIPCOR: dipole corrections for dipol
 direction  3 min pos   169,
 dipolmoment           0.000000      0.000000      0.000035 electrons x Angstroem
 Tr[quadrupol]      -256.811687

 energy correction for charged system         0.000000 eV
 dipol+quadrupol energy correction           -0.000000 eV
 added-field ion interaction          0.001101 eV  (added to PSCEN)


 Free energy of the ion-electron system (eV)
  ---------------------------------------------------
  alpha Z        PSCENC =       178.53277461
  Ewald energy   TEWEN  =     30156.39394529
  -Hartree energ DENC   =    -36295.46374428
  -exchange      EXHF   =         0.00000000
  -V(xc)+E(xc)   XCENC  =        26.84664855
  PAW double counting   =      5568.98828343    -5342.72235985
  entropy T*S    EENTRO =         0.00186638
  eigenvalues    EBANDS =      -141.95368827
  atomic energy  EATOM  =      5832.89561447
  Solvation  Ediel_sol  =         0.00000000
  ---------------------------------------------------
  free energy    TOTEN  =       -16.48065968 eV

  energy without entropy =      -16.48252605  energy(sigma->0) =      -16.48128180


--------------------------------------------------------------------------------------------------------




--------------------------------------- Iteration      1(   3)  ---------------------------------------


     EDDAV:  cpu time   13.9601: real time   15.2091
       DOS:  cpu time    0.0023: real time    0.0023
    --------------------------------------------
      LOOP:  cpu time   13.9625: real time   15.2115

 eigenvalue-minimisations  :  7016
 total energy-change (2. order) :-0.3170429E+02  (-0.2863191E+02)
 number of electron      80.0000000 magnetization 
 augmentation part       80.0000000 magnetization 

 DIPCOR: dipole corrections for dipol
 direction  3 min pos   169,
 dipolmoment           0.000000      0.000000      0.000035 electrons x Angstroem
 Tr[quadrupol]      -256.811687

 energy correction for charged system         0.000000 eV
 dipol+quadrupol energy correction           -0.000000 eV
 added-field ion interaction          0.001101 eV  (added to PSCEN)


 Free energy of the ion-electron system (eV)
  ---------------------------------------------------
  alpha Z        PSCENC =       178.53277461
  Ewald energy   TEWEN  =     30156.39394529
  -Hartree energ DENC   =    -36295.46374428
  -exchange      EXHF   =         0.00000000
  -V(xc)+E(xc)   XCENC  =        26.84664855
  PAW double counting   =      5568.98828343    -5342.72235985
  entropy T*S    EENTRO =        -0.00950725
  eigenvalues    EBANDS =      -173.64660471
  atomic energy  EATOM  =      5832.89561447
  Solvation  Ediel_sol  =         0.00000000
  ---------------------------------------------------
  free energy    TOTEN  =       -48.18494974 eV

  energy without entropy =      -48.17544249  energy(sigma->0) =      -48.18178066


--------------------------------------------------------------------------------------------------------




--------------------------------------- Iteration      1(   4)  ---------------------------------------


     EDDAV:  cpu time    5.4618: real time    5.6567
       DOS:  cpu time    0.0023: real time    0.0023
    --------------------------------------------
      LOOP:  cpu time    5.4641: real time    5.6590

 eigenvalue-minimisations  :  7232
 total energy-change (2. order) :-0.1117213E+01  (-0.1074746E+01)
 number of electron      80.0000000 magnetization 
 augmentation part       80.0000000 magnetization 

 DIPCOR: dipole corrections for dipol
 direction  3 min pos   169,
 dipolmoment           0.000000      0.000000      0.000035 electrons x Angstroem
 Tr[quadrupol]      -256.811687

 energy correction for charged system         0.000000 eV
 dipol+quadrupol energy correction           -0.000000 eV
 added-field ion interaction          0.001101 eV  (added to PSCEN)


 Free energy of the ion-electron system (eV)
  ---------------------------------------------------
  alpha Z        PSCENC =       178.53277461
  Ewald energy   TEWEN  =     30156.39394529
  -Hartree energ DENC   =    -36295.46374428
  -exchange      EXHF   =         0.00000000
  -V(xc)+E(xc)   XCENC  =        26.84664855
  PAW double counting   =      5568.98828343    -5342.72235985
  entropy T*S    EENTRO =        -0.01039688
  eigenvalues    EBANDS =      -174.76292783
  atomic energy  EATOM  =      5832.89561447
  Solvation  Ediel_sol  =         0.00000000
  ---------------------------------------------------
  free energy    TOTEN  =       -49.30216249 eV

  energy without entropy =      -49.29176561  energy(sigma->0) =      -49.29869686


--------------------------------------------------------------------------------------------------------




--------------------------------------- Iteration      1(   5)  ---------------------------------------


     EDDAV:  cpu time    2.3742: real time    2.3818
       DOS:  cpu time    0.0023: real time    0.0023
    CHARGE:  cpu time    0.0734: real time    0.0853
    MIXING:  cpu time    0.0087: real time    0.0278
    --------------------------------------------
      LOOP:  cpu time    2.4586: real time    2.4972

 eigenvalue-minimisations  :  7688
 total energy-change (2. order) :-0.3953947E-01  (-0.3906173E-01)
 number of electron      79.9999994 magnetization 
 augmentation part       23.3055441 magnetization 

 DIPCOR: dipole corrections for dipol
 direction  3 min pos   169,
 dipolmoment           0.000000      0.000000      0.000035 electrons x Angstroem
 Tr[quadrupol]      -256.811687

 energy correction for charged system         0.000000 eV
 dipol+quadrupol energy correction           -0.000000 eV
 added-field ion interaction          0.001101 eV  (added to PSCEN)


 Broyden mixing:
  rms(total) = 0.28494E+01    rms(broyden)= 0.28494E+01
  rms(prec ) = 0.28821E+01
  weight for this iteration     100.00

 Free energy of the ion-electron system (eV)
  ---------------------------------------------------
  alpha Z        PSCENC =       178.53277461
  Ewald energy   TEWEN  =     30156.39394529
  -Hartree energ DENC   =    -36295.46374428
  -exchange      EXHF   =         0.00000000
  -V(xc)+E(xc)   XCENC  =        26.84664855
  PAW double counting   =      5568.98828343    -5342.72235985
  entropy T*S    EENTRO =        -0.01038273
  eigenvalues    EBANDS =      -174.80248145
  atomic energy  EATOM  =      5832.89561447
  Solvation  Ediel_sol  =         0.00000000
  ---------------------------------------------------
  free energy    TOTEN  =       -49.34170196 eV

  energy without entropy =      -49.33131923  energy(sigma->0) =      -49.33824105


--------------------------------------------------------------------------------------------------------




--------------------------------------- Iteration      1(   6)  ---------------------------------------


    POTLOK:  cpu time    0.0061: real time    0.0061
    SETDIJ:  cpu time    0.0024: real time    0.0024
    EDDIAG:  cpu time    0.5031: real time    0.5214
  RMM-DIIS:  cpu time    0.4280: real time    0.4383
    ORTHCH:  cpu time    0.0361: real time    0.0361
       DOS:  cpu time    0.0026: real time    0.0026
    CHARGE:  cpu time    0.0514: real time    0.0515
    MIXING:  cpu time    0.0028: real time    0.0057
    --------------------------------------------
      LOOP:  cpu time    1.0326: real time    1.0640

 eigenvalue-minimisations  :  5800
 total energy-change (2. order) : 0.1921296E+01  (-0.8127374E+00)
 number of electron      79.9999995 magnetization 
 augmentation part       24.5848994 magnetization 

 DIPCOR: dipole corrections for dipol
 direction  3 min pos   155,
 dipolmoment           0.000000      0.000000     -0.009089 electrons x Angstroem
 Tr[quadrupol]      -255.728720

 energy correction for charged system         0.000000 eV
 dipol+quadrupol energy correction           -0.000022 eV
 added-field ion interaction          0.254067 eV  (added to PSCEN)


 Broyden mixing:
  rms(total) = 0.19940E+01    rms(broyden)= 0.19939E+01
  rms(prec ) = 0.20807E+01
  weight for this iteration     100.00

 eigenvalues of (default mixing * dielectric matrix)
  average eigenvalue GAMMA=   1.3998
  1.3998

 Free energy of the ion-electron system (eV)
  ---------------------------------------------------
  alpha Z        PSCENC =       178.78571894
  Ewald energy   TEWEN  =     30156.39394529
  -Hartree energ DENC   =    -36202.88059227
  -exchange      EXHF   =         0.00000000
  -V(xc)+E(xc)   XCENC  =        24.73651544
  PAW double counting   =      6116.87120688    -5902.10400620
  entropy T*S    EENTRO =        -0.00250405
  eigenvalues    EBANDS =      -252.11630458
  atomic energy  EATOM  =      5832.89561447
  Solvation  Ediel_sol  =         0.00000000
  ---------------------------------------------------
  free energy    TOTEN  =       -47.42040608 eV

  energy without entropy =      -47.41790203  energy(sigma->0) =      -47.41957140


--------------------------------------------------------------------------------------------------------




--------------------------------------- Iteration      1(   7)  ---------------------------------------


    POTLOK:  cpu time    0.0055: real time    0.0058
    SETDIJ:  cpu time    0.0024: real time    0.0026
    EDDIAG:  cpu time    0.4979: real time    0.5041
  RMM-DIIS:  cpu time    0.5063: real time    0.5129
    ORTHCH:  cpu time    0.0356: real time    0.0359
       DOS:  cpu time    0.0023: real time    0.0023
    CHARGE:  cpu time    0.0538: real time    0.0540
    MIXING:  cpu time    0.0006: real time    0.0006
    --------------------------------------------
      LOOP:  cpu time    1.1044: real time    1.1182

 eigenvalue-minimisations  :  5813
 total energy-change (2. order) :-0.1089464E+02  (-0.1946367E+01)
 number of electron      79.9999992 magnetization 
 augmentation part       24.2302278 magnetization 

 DIPCOR: dipole corrections for dipol
 direction  3 min pos   158,
 dipolmoment           0.000000      0.000000      0.098258 electrons x Angstroem
 Tr[quadrupol]      -258.499913

 energy correction for charged system         0.000000 eV
 dipol+quadrupol energy correction           -0.002563 eV
 added-field ion interaction         -1.504206 eV  (added to PSCEN)


 Broyden mixing:
  rms(total) = 0.27684E+01    rms(broyden)= 0.27683E+01
  rms(prec ) = 0.32476E+01
  weight for this iteration     100.00

 eigenvalues of (default mixing * dielectric matrix)
  average eigenvalue GAMMA=   1.2044
  2.1402  0.2685

 Free energy of the ion-electron system (eV)
  ---------------------------------------------------
  alpha Z        PSCENC =       177.02490422
  Ewald energy   TEWEN  =     30156.39394529
  -Hartree energ DENC   =    -36273.41407268
  -exchange      EXHF   =         0.00000000
  -V(xc)+E(xc)   XCENC  =        24.04006753
  PAW double counting   =      6551.22244459    -6341.63319466
  entropy T*S    EENTRO =        -0.00271493
  eigenvalues    EBANDS =      -184.84204359
  atomic energy  EATOM  =      5832.89561447
  Solvation  Ediel_sol  =         0.00000000
  ---------------------------------------------------
  free energy    TOTEN  =       -58.31504978 eV

  energy without entropy =      -58.31233484  energy(sigma->0) =      -58.31414480


--------------------------------------------------------------------------------------------------------




--------------------------------------- Iteration      1(   8)  ---------------------------------------


    POTLOK:  cpu time    0.0055: real time    0.0059
    SETDIJ:  cpu time    0.0023: real time    0.0024
    EDDIAG:  cpu time    0.5280: real time    0.5352
  RMM-DIIS:  cpu time    0.4304: real time    0.4315
    ORTHCH:  cpu time    0.0393: real time    0.0394
       DOS:  cpu time    0.0024: real time    0.0024
    CHARGE:  cpu time    0.0526: real time    0.0528
    MIXING:  cpu time    0.0006: real time    0.0006
    --------------------------------------------
      LOOP:  cpu time    1.0612: real time    1.0700

 eigenvalue-minimisations  :  5787
 total energy-change (2. order) : 0.9706362E+01  (-0.6261875E+00)
 number of electron      79.9999990 magnetization 
 augmentation part       24.9906547 magnetization 

 DIPCOR: dipole corrections for dipol
 direction  3 min pos   159,
 dipolmoment           0.000000      0.000000     -0.104252 electrons x Angstroem
 Tr[quadrupol]      -256.845680

 energy correction for charged system         0.000000 eV
 dipol+quadrupol energy correction           -0.002886 eV
 added-field ion interaction          1.156600 eV  (added to PSCEN)


 Broyden mixing:
  rms(total) = 0.13402E+01    rms(broyden)= 0.13401E+01
  rms(prec ) = 0.18142E+01
  weight for this iteration     100.00

 eigenvalues of (default mixing * dielectric matrix)
  average eigenvalue GAMMA=   0.9376
  2.1501  0.3313  0.3313

 Free energy of the ion-electron system (eV)
  ---------------------------------------------------
  alpha Z        PSCENC =       179.68538808
  Ewald energy   TEWEN  =     30156.39394529
  -Hartree energ DENC   =    -36206.52873787
  -exchange      EXHF   =         0.00000000
  -V(xc)+E(xc)   XCENC  =        23.59756797
  PAW double counting   =      6934.32782322    -6730.04740291
  entropy T*S    EENTRO =         0.00344719
  eigenvalues    EBANDS =      -238.93633347
  atomic energy  EATOM  =      5832.89561447
  Solvation  Ediel_sol  =         0.00000000
  ---------------------------------------------------
  free energy    TOTEN  =       -48.60868803 eV

  energy without entropy =      -48.61213523  energy(sigma->0) =      -48.60983710


--------------------------------------------------------------------------------------------------------




--------------------------------------- Iteration      1(   9)  ---------------------------------------


    POTLOK:  cpu time    0.0056: real time    0.0059
    SETDIJ:  cpu time    0.0024: real time    0.0024
    EDDIAG:  cpu time    0.5023: real time    0.5047
  RMM-DIIS:  cpu time    0.4286: real time    0.4295
    ORTHCH:  cpu time    0.0376: real time    0.0376
       DOS:  cpu time    0.0023: real time    0.0023
    CHARGE:  cpu time    0.0522: real time    0.0525
    MIXING:  cpu time    0.0005: real time    0.0005
    --------------------------------------------
      LOOP:  cpu time    1.0316: real time    1.0355

 eigenvalue-minimisations  :  5784
 total energy-change (2. order) :-0.4552901E+01  (-0.3595200E+00)
 number of electron      79.9999999 magnetization 
 augmentation part       24.8145169 magnetization 

 DIPCOR: dipole corrections for dipol
 direction  3 min pos   162,
 dipolmoment           0.000000      0.000000      0.252375 electrons x Angstroem
 Tr[quadrupol]      -256.627010

 energy correction for charged system         0.000000 eV
 dipol+quadrupol energy correction           -0.016911 eV
 added-field ion interaction          0.390940 eV  (added to PSCEN)


 Broyden mixing:
  rms(total) = 0.19714E+01    rms(broyden)= 0.19713E+01
  rms(prec ) = 0.29945E+01
  weight for this iteration     100.00

 eigenvalues of (default mixing * dielectric matrix)
  average eigenvalue GAMMA=   0.9156
  2.2371  1.0327  0.2878  0.1047

 Free energy of the ion-electron system (eV)
  ---------------------------------------------------
  alpha Z        PSCENC =       178.90570260
  Ewald energy   TEWEN  =     30156.39394529
  -Hartree energ DENC   =    -36201.13281711
  -exchange      EXHF   =         0.00000000
  -V(xc)+E(xc)   XCENC  =        23.66452284
  PAW double counting   =      6958.23306129    -6754.00296878
  entropy T*S    EENTRO =         0.00255743
  eigenvalues    EBANDS =      -248.12120741
  atomic energy  EATOM  =      5832.89561447
  Solvation  Ediel_sol  =         0.00000000
  ---------------------------------------------------
  free energy    TOTEN  =       -53.16158938 eV

  energy without entropy =      -53.16414680  energy(sigma->0) =      -53.16244185


--------------------------------------------------------------------------------------------------------




--------------------------------------- Iteration      1(  10)  ---------------------------------------


    POTLOK:  cpu time    0.0057: real time    0.0060
    SETDIJ:  cpu time    0.0024: real time    0.0024
    EDDIAG:  cpu time    0.4964: real time    0.4992
  RMM-DIIS:  cpu time    0.4313: real time    0.4322
    ORTHCH:  cpu time    0.0385: real time    0.0385
       DOS:  cpu time    0.0023: real time    0.0023
    CHARGE:  cpu time    0.0519: real time    0.0521
    MIXING:  cpu time    0.0008: real time    0.0008
    --------------------------------------------
      LOOP:  cpu time    1.0293: real time    1.0335

 eigenvalue-minimisations  :  5782
 total energy-change (2. order) : 0.4376637E+01  (-0.4297311E+00)
 number of electron      79.9999989 magnetization 
 augmentation part       24.9114771 magnetization 

 DIPCOR: dipole corrections for dipol
 direction  3 min pos   160,
 dipolmoment           0.000000      0.000000     -0.129370 electrons x Angstroem
 Tr[quadrupol]      -256.626851

 energy correction for charged system         0.000000 eV
 dipol+quadrupol energy correction           -0.004444 eV
 added-field ion interaction          0.890048 eV  (added to PSCEN)


 Broyden mixing:
  rms(total) = 0.13302E+01    rms(broyden)= 0.13300E+01
  rms(prec ) = 0.17044E+01
  weight for this iteration     100.00

 eigenvalues of (default mixing * dielectric matrix)
  average eigenvalue GAMMA=   0.8249
  2.3134  1.2301  0.2698  0.2221  0.0892

 Free energy of the ion-electron system (eV)
  ---------------------------------------------------
  alpha Z        PSCENC =       179.41727771
  Ewald energy   TEWEN  =     30156.39394529
  -Hartree energ DENC   =    -36204.59493787
  -exchange      EXHF   =         0.00000000
  -V(xc)+E(xc)   XCENC  =        23.78750117
  PAW double counting   =      7014.12356087    -6810.05339468
  entropy T*S    EENTRO =         0.00002947
  eigenvalues    EBANDS =      -240.75454839
  atomic energy  EATOM  =      5832.89561447
  Solvation  Ediel_sol  =         0.00000000
  ---------------------------------------------------
  free energy    TOTEN  =       -48.78495197 eV

  energy without entropy =      -48.78498143  energy(sigma->0) =      -48.78496179


--------------------------------------------------------------------------------------------------------




--------------------------------------- Iteration      1(  11)  ---------------------------------------


    POTLOK:  cpu time    0.0057: real time    0.0060
    SETDIJ:  cpu time    0.0023: real time    0.0023
    EDDIAG:  cpu time    0.5070: real time    0.5111
  RMM-DIIS:  cpu time    0.4238: real time    0.4277
    ORTHCH:  cpu time    0.0354: real time    0.0360
       DOS:  cpu time    0.0023: real time    0.0023
    CHARGE:  cpu time    0.0509: real time    0.0512
    MIXING:  cpu time    0.0006: real time    0.0006
    --------------------------------------------
      LOOP:  cpu time    1.0282: real time    1.0373

 eigenvalue-minimisations  :  5762
 total energy-change (2. order) : 0.2132852E+01  (-0.5885505E-01)
 number of electron      79.9999993 magnetization 
 augmentation part       24.9029052 magnetization 

 DIPCOR: dipole corrections for dipol
 direction  3 min pos   160,
 dipolmoment           0.000000      0.000000     -0.023852 electrons x Angstroem
 Tr[quadrupol]      -256.613404

 energy correction for charged system         0.000000 eV
 dipol+quadrupol energy correction           -0.000151 eV
 added-field ion interaction          0.164098 eV  (added to PSCEN)


 Broyden mixing:
  rms(total) = 0.60289E+00    rms(broyden)= 0.60286E+00
  rms(prec ) = 0.67559E+00
  weight for this iteration     100.00

 eigenvalues of (default mixing * dielectric matrix)
  average eigenvalue GAMMA=   0.7363
  2.1080  1.1704  0.3812  0.3339  0.3339  0.0901

 Free energy of the ion-electron system (eV)
  ---------------------------------------------------
  alpha Z        PSCENC =       178.69562057
  Ewald energy   TEWEN  =     30156.39394529
  -Hartree energ DENC   =    -36207.19707630
  -exchange      EXHF   =         0.00000000
  -V(xc)+E(xc)   XCENC  =        23.83939813
  PAW double counting   =      7049.83160513    -6845.93504098
  entropy T*S    EENTRO =        -0.01182312
  eigenvalues    EBANDS =      -235.16434362
  atomic energy  EATOM  =      5832.89561447
  Solvation  Ediel_sol  =         0.00000000
  ---------------------------------------------------
  free energy    TOTEN  =       -46.65210043 eV

  energy without entropy =      -46.64027731  energy(sigma->0) =      -46.64815939


--------------------------------------------------------------------------------------------------------




--------------------------------------- Iteration      1(  12)  ---------------------------------------


    POTLOK:  cpu time    0.0055: real time    0.0060
    SETDIJ:  cpu time    0.0023: real time    0.0023
    EDDIAG:  cpu time    0.5041: real time    0.5070
  RMM-DIIS:  cpu time    0.4304: real time    0.4312
    ORTHCH:  cpu time    0.0361: real time    0.0361
       DOS:  cpu time    0.0023: real time    0.0025
    CHARGE:  cpu time    0.0510: real time    0.0510
    MIXING:  cpu time    0.0007: real time    0.0007
    --------------------------------------------
      LOOP:  cpu time    1.0325: real time    1.0368

 eigenvalue-minimisations  :  5809
 total energy-change (2. order) : 0.2647338E+00  (-0.3717800E-01)
 number of electron      79.9999993 magnetization 
 augmentation part       24.9096120 magnetization 

 DIPCOR: dipole corrections for dipol
 direction  3 min pos   167,
 dipolmoment           0.000000      0.000000     -0.020466 electrons x Angstroem
 Tr[quadrupol]      -256.414128

 energy correction for charged system         0.000000 eV
 dipol+quadrupol energy correction           -0.000111 eV
 added-field ion interaction         -0.462964 eV  (added to PSCEN)


 Broyden mixing:
  rms(total) = 0.33620E+00    rms(broyden)= 0.33615E+00
  rms(prec ) = 0.40712E+00
  weight for this iteration     100.00

 eigenvalues of (default mixing * dielectric matrix)
  average eigenvalue GAMMA=   0.7960
  2.2804  1.2176  0.7062  0.7062  0.2860  0.2860  0.0899

 Free energy of the ion-electron system (eV)
  ---------------------------------------------------
  alpha Z        PSCENC =       178.06859878
  Ewald energy   TEWEN  =     30156.39394529
  -Hartree energ DENC   =    -36203.26477697
  -exchange      EXHF   =         0.00000000
  -V(xc)+E(xc)   XCENC  =        23.91132522
  PAW double counting   =      7015.12303772    -6810.69240635
  entropy T*S    EENTRO =        -0.01053130
  eigenvalues    EBANDS =      -238.81217351
  atomic energy  EATOM  =      5832.89561447
  Solvation  Ediel_sol  =         0.00000000
  ---------------------------------------------------
  free energy    TOTEN  =       -46.38736664 eV

  energy without entropy =      -46.37683534  energy(sigma->0) =      -46.38385621


--------------------------------------------------------------------------------------------------------




--------------------------------------- Iteration      1(  13)  ---------------------------------------


    POTLOK:  cpu time    0.0055: real time    0.0058
    SETDIJ:  cpu time    0.0023: real time    0.0023
    EDDIAG:  cpu time    0.5063: real time    0.5100
  RMM-DIIS:  cpu time    0.4333: real time    0.4342
    ORTHCH:  cpu time    0.0357: real time    0.0359
       DOS:  cpu time    0.0024: real time    0.0024
    CHARGE:  cpu time    0.0505: real time    0.0506
    MIXING:  cpu time    0.0007: real time    0.0007
    --------------------------------------------
      LOOP:  cpu time    1.0366: real time    1.0418

 eigenvalue-minimisations  :  5801
 total energy-change (2. order) : 0.3086278E-01  (-0.1489130E-01)
 number of electron      79.9999994 magnetization 
 augmentation part       24.8885607 magnetization 

 DIPCOR: dipole corrections for dipol
 direction  3 min pos   162,
 dipolmoment           0.000000      0.000000      0.008655 electrons x Angstroem
 Tr[quadrupol]      -256.630456

 energy correction for charged system         0.000000 eV
 dipol+quadrupol energy correction           -0.000020 eV
 added-field ion interaction          0.013407 eV  (added to PSCEN)


 Broyden mixing:
  rms(total) = 0.30130E+00    rms(broyden)= 0.30127E+00
  rms(prec ) = 0.40065E+00
  weight for this iteration     100.00

 eigenvalues of (default mixing * dielectric matrix)
  average eigenvalue GAMMA=   0.7732
  2.1695  1.2063  0.8666  0.8666  0.4243  0.2811  0.2811  0.0899

 Free energy of the ion-electron system (eV)
  ---------------------------------------------------
  alpha Z        PSCENC =       178.54506065
  Ewald energy   TEWEN  =     30156.39394529
  -Hartree energ DENC   =    -36209.05048840
  -exchange      EXHF   =         0.00000000
  -V(xc)+E(xc)   XCENC  =        23.89698980
  PAW double counting   =      7034.17804059    -6829.91316341
  entropy T*S    EENTRO =        -0.01039436
  eigenvalues    EBANDS =      -233.29210849
  atomic energy  EATOM  =      5832.89561447
  Solvation  Ediel_sol  =         0.00000000
  ---------------------------------------------------
  free energy    TOTEN  =       -46.35650387 eV

  energy without entropy =      -46.34610951  energy(sigma->0) =      -46.35303908


--------------------------------------------------------------------------------------------------------




--------------------------------------- Iteration      1(  14)  ---------------------------------------


    POTLOK:  cpu time    0.0055: real time    0.0058
    SETDIJ:  cpu time    0.0024: real time    0.0024
    EDDIAG:  cpu time    0.4967: real time    0.5019
  RMM-DIIS:  cpu time    0.4933: real time    0.4956
    ORTHCH:  cpu time    0.0374: real time    0.0374
       DOS:  cpu time    0.0023: real time    0.0023
    CHARGE:  cpu time    0.0514: real time    0.0516
    MIXING:  cpu time    0.0007: real time    0.0007
    --------------------------------------------
      LOOP:  cpu time    1.0896: real time    1.0977

 eigenvalue-minimisations  :  6068
 total energy-change (2. order) : 0.4628930E-01  (-0.1541731E-02)
 number of electron      79.9999994 magnetization 
 augmentation part       24.8801494 magnetization 

 DIPCOR: dipole corrections for dipol
 direction  3 min pos   160,
 dipolmoment           0.000000      0.000000      0.007151 electrons x Angstroem
 Tr[quadrupol]      -256.638047

 energy correction for charged system         0.000000 eV
 dipol+quadrupol energy correction           -0.000014 eV
 added-field ion interaction         -0.049195 eV  (added to PSCEN)


 Broyden mixing:
  rms(total) = 0.19333E+00    rms(broyden)= 0.19332E+00
  rms(prec ) = 0.26440E+00
  weight for this iteration     100.00

 eigenvalues of (default mixing * dielectric matrix)
  average eigenvalue GAMMA=   0.8726
  1.9676  1.5250  1.5250  0.8528  0.6625  0.6625  0.2839  0.2839  0.0899

 Free energy of the ion-electron system (eV)
  ---------------------------------------------------
  alpha Z        PSCENC =       178.48246542
  Ewald energy   TEWEN  =     30156.39394529
  -Hartree energ DENC   =    -36210.01248953
  -exchange      EXHF   =         0.00000000
  -V(xc)+E(xc)   XCENC  =        23.92991298
  PAW double counting   =      7021.33272149    -6816.82932320
  entropy T*S    EENTRO =        -0.01111141
  eigenvalues    EBANDS =      -232.49195008
  atomic energy  EATOM  =      5832.89561447
  Solvation  Ediel_sol  =         0.00000000
  ---------------------------------------------------
  free energy    TOTEN  =       -46.31021457 eV

  energy without entropy =      -46.29910316  energy(sigma->0) =      -46.30651077


--------------------------------------------------------------------------------------------------------




--------------------------------------- Iteration      1(  15)  ---------------------------------------


    POTLOK:  cpu time    0.0056: real time    0.0059
    SETDIJ:  cpu time    0.0024: real time    0.0024
    EDDIAG:  cpu time    0.5015: real time    0.5062
  RMM-DIIS:  cpu time    0.4373: real time    0.4389
    ORTHCH:  cpu time    0.0368: real time    0.0368
       DOS:  cpu time    0.0024: real time    0.0024
    CHARGE:  cpu time    0.0512: real time    0.0514
    MIXING:  cpu time    0.0007: real time    0.0007
    --------------------------------------------
      LOOP:  cpu time    1.0379: real time    1.0447

 eigenvalue-minimisations  :  5824
 total energy-change (2. order) : 0.3261993E-01  (-0.1489406E-02)
 number of electron      79.9999993 magnetization 
 augmentation part       24.8723609 magnetization 

 DIPCOR: dipole corrections for dipol
 direction  3 min pos   160,
 dipolmoment           0.000000      0.000000     -0.002865 electrons x Angstroem
 Tr[quadrupol]      -256.670124

 energy correction for charged system         0.000000 eV
 dipol+quadrupol energy correction           -0.000002 eV
 added-field ion interaction          0.019712 eV  (added to PSCEN)


 Broyden mixing:
  rms(total) = 0.56377E-01    rms(broyden)= 0.56346E-01
  rms(prec ) = 0.69595E-01
  weight for this iteration     100.00

 eigenvalues of (default mixing * dielectric matrix)
  average eigenvalue GAMMA=   0.9359
  2.2697  1.5816  1.5816  1.0736  0.7205  0.7205  0.7543  0.2839  0.2839  0.0899

 Free energy of the ion-electron system (eV)
  ---------------------------------------------------
  alpha Z        PSCENC =       178.55138322
  Ewald energy   TEWEN  =     30156.39394529
  -Hartree energ DENC   =    -36211.64701175
  -exchange      EXHF   =         0.00000000
  -V(xc)+E(xc)   XCENC  =        23.96975466
  PAW double counting   =      7012.18128211    -6807.43813124
  entropy T*S    EENTRO =        -0.01114642
  eigenvalues    EBANDS =      -231.17328498
  atomic energy  EATOM  =      5832.89561447
  Solvation  Ediel_sol  =         0.00000000
  ---------------------------------------------------
  free energy    TOTEN  =       -46.27759464 eV

  energy without entropy =      -46.26644822  energy(sigma->0) =      -46.27387916


--------------------------------------------------------------------------------------------------------




--------------------------------------- Iteration      1(  16)  ---------------------------------------


    POTLOK:  cpu time    0.0056: real time    0.0059
    SETDIJ:  cpu time    0.0024: real time    0.0023
    EDDIAG:  cpu time    0.5726: real time    0.5774
  RMM-DIIS:  cpu time    0.4390: real time    0.4401
    ORTHCH:  cpu time    0.0364: real time    0.0364
       DOS:  cpu time    0.0023: real time    0.0023
    CHARGE:  cpu time    0.0505: real time    0.0507
    MIXING:  cpu time    0.0012: real time    0.0033
    --------------------------------------------
      LOOP:  cpu time    1.1100: real time    1.1186

 eigenvalue-minimisations  :  5913
 total energy-change (2. order) :-0.1663639E-02  (-0.2086683E-03)
 number of electron      79.9999993 magnetization 
 augmentation part       24.8733810 magnetization 

 DIPCOR: dipole corrections for dipol
 direction  3 min pos   160,
 dipolmoment           0.000000      0.000000      0.002296 electrons x Angstroem
 Tr[quadrupol]      -256.679665

 energy correction for charged system         0.000000 eV
 dipol+quadrupol energy correction           -0.000001 eV
 added-field ion interaction         -0.015794 eV  (added to PSCEN)


 Broyden mixing:
  rms(total) = 0.72336E-01    rms(broyden)= 0.72333E-01
  rms(prec ) = 0.10524E+00
  weight for this iteration     100.00

 eigenvalues of (default mixing * dielectric matrix)
  average eigenvalue GAMMA=   0.9530
  2.3370  1.6884  1.6884  1.1146  0.8636  0.8636  0.6349  0.6349  0.2839  0.2839
  0.0899

 Free energy of the ion-electron system (eV)
  ---------------------------------------------------
  alpha Z        PSCENC =       178.51587838
  Ewald energy   TEWEN  =     30156.39394529
  -Hartree energ DENC   =    -36212.05889406
  -exchange      EXHF   =         0.00000000
  -V(xc)+E(xc)   XCENC  =        23.97516808
  PAW double counting   =      7016.85681709    -6812.14472221
  entropy T*S    EENTRO =        -0.01100041
  eigenvalues    EBANDS =      -230.70206490
  atomic energy  EATOM  =      5832.89561447
  Solvation  Ediel_sol  =         0.00000000
  ---------------------------------------------------
  free energy    TOTEN  =       -46.27925827 eV

  energy without entropy =      -46.26825787  energy(sigma->0) =      -46.27559147


--------------------------------------------------------------------------------------------------------




--------------------------------------- Iteration      1(  17)  ---------------------------------------


    POTLOK:  cpu time    0.0058: real time    0.0062
    SETDIJ:  cpu time    0.0024: real time    0.0024
    EDDIAG:  cpu time    0.5113: real time    0.5210
  RMM-DIIS:  cpu time    0.4521: real time    0.4532
    ORTHCH:  cpu time    0.0367: real time    0.0368
       DOS:  cpu time    0.0023: real time    0.0025
    CHARGE:  cpu time    0.0502: real time    0.0506
    MIXING:  cpu time    0.0009: real time    0.0009
    --------------------------------------------
      LOOP:  cpu time    1.0617: real time    1.0736

 eigenvalue-minimisations  :  5994
 total energy-change (2. order) : 0.3829665E-02  (-0.8462802E-04)
 number of electron      79.9999993 magnetization 
 augmentation part       24.8714502 magnetization 

 DIPCOR: dipole corrections for dipol
 direction  3 min pos   154,
 dipolmoment           0.000000      0.000000      0.001337 electrons x Angstroem
 Tr[quadrupol]      -256.694636

 energy correction for charged system         0.000000 eV
 dipol+quadrupol energy correction           -0.000000 eV
 added-field ion interaction         -0.043002 eV  (added to PSCEN)


 Broyden mixing:
  rms(total) = 0.32524E-01    rms(broyden)= 0.32522E-01
  rms(prec ) = 0.47096E-01
  weight for this iteration     100.00

 eigenvalues of (default mixing * dielectric matrix)
  average eigenvalue GAMMA=   1.0345
  2.5383  2.0085  2.0085  1.1620  0.9589  0.9589  0.7725  0.6741  0.6741  0.2839
  0.2839  0.0899

 Free energy of the ion-electron system (eV)
  ---------------------------------------------------
  alpha Z        PSCENC =       178.48867095
  Ewald energy   TEWEN  =     30156.39394529
  -Hartree energ DENC   =    -36212.62367897
  -exchange      EXHF   =         0.00000000
  -V(xc)+E(xc)   XCENC  =        23.98412852
  PAW double counting   =      7016.44477792    -6811.69521254
  entropy T*S    EENTRO =        -0.01097871
  eigenvalues    EBANDS =      -230.15269555
  atomic energy  EATOM  =      5832.89561447
  Solvation  Ediel_sol  =         0.00000000
  ---------------------------------------------------
  free energy    TOTEN  =       -46.27542861 eV

  energy without entropy =      -46.26444990  energy(sigma->0) =      -46.27176904


--------------------------------------------------------------------------------------------------------




--------------------------------------- Iteration      1(  18)  ---------------------------------------


    POTLOK:  cpu time    0.0059: real time    0.0062
    SETDIJ:  cpu time    0.0024: real time    0.0024
    EDDIAG:  cpu time    0.5091: real time    0.5157
  RMM-DIIS:  cpu time    0.4275: real time    0.4309
    ORTHCH:  cpu time    0.0350: real time    0.0354
       DOS:  cpu time    0.0024: real time    0.0023
    CHARGE:  cpu time    0.0506: real time    0.0510
    MIXING:  cpu time    0.0010: real time    0.0010
    --------------------------------------------
      LOOP:  cpu time    1.0339: real time    1.0448

 eigenvalue-minimisations  :  5866
 total energy-change (2. order) : 0.1111145E-02  (-0.4185509E-04)
 number of electron      79.9999993 magnetization 
 augmentation part       24.8707487 magnetization 

 DIPCOR: dipole corrections for dipol
 direction  3 min pos   151,
 dipolmoment           0.000000      0.000000      0.000200 electrons x Angstroem
 Tr[quadrupol]      -256.711334

 energy correction for charged system         0.000000 eV
 dipol+quadrupol energy correction           -0.000000 eV
 added-field ion interaction         -0.008942 eV  (added to PSCEN)


 Broyden mixing:
  rms(total) = 0.13025E-01    rms(broyden)= 0.13022E-01
  rms(prec ) = 0.15956E-01
  weight for this iteration     100.00

 eigenvalues of (default mixing * dielectric matrix)
  average eigenvalue GAMMA=   1.0665
  2.5773  2.0943  2.0943  1.1237  1.1237  1.1042  0.8670  0.8670  0.6775  0.6775
  0.2839  0.2839  0.0899

 Free energy of the ion-electron system (eV)
  ---------------------------------------------------
  alpha Z        PSCENC =       178.52273111
  Ewald energy   TEWEN  =     30156.39394529
  -Hartree energ DENC   =    -36213.17277476
  -exchange      EXHF   =         0.00000000
  -V(xc)+E(xc)   XCENC  =        23.99048891
  PAW double counting   =      7016.46073041    -6811.69136716
  entropy T*S    EENTRO =        -0.01092765
  eigenvalues    EBANDS =      -229.66275808
  atomic energy  EATOM  =      5832.89561447
  Solvation  Ediel_sol  =         0.00000000
  ---------------------------------------------------
  free energy    TOTEN  =       -46.27431746 eV

  energy without entropy =      -46.26338981  energy(sigma->0) =      -46.27067491


--------------------------------------------------------------------------------------------------------




--------------------------------------- Iteration      1(  19)  ---------------------------------------


    POTLOK:  cpu time    0.0056: real time    0.0059
    SETDIJ:  cpu time    0.0023: real time    0.0023
    EDDIAG:  cpu time    0.4992: real time    0.5054
  RMM-DIIS:  cpu time    0.4085: real time    0.4107
    ORTHCH:  cpu time    0.0355: real time    0.0358
       DOS:  cpu time    0.0023: real time    0.0023
    CHARGE:  cpu time    0.0512: real time    0.0516
    MIXING:  cpu time    0.0011: real time    0.0011
    --------------------------------------------
      LOOP:  cpu time    1.0058: real time    1.0152

 eigenvalue-minimisations  :  5344
 total energy-change (2. order) : 0.1102341E-03  (-0.1228535E-04)
 number of electron      79.9999993 magnetization 
 augmentation part       24.8698676 magnetization 

 DIPCOR: dipole corrections for dipol
 direction  3 min pos   161,
 dipolmoment           0.000000      0.000000     -0.000837 electrons x Angstroem
 Tr[quadrupol]      -256.727620

 energy correction for charged system         0.000000 eV
 dipol+quadrupol energy correction           -0.000000 eV
 added-field ion interaction          0.002231 eV  (added to PSCEN)


 Broyden mixing:
  rms(total) = 0.73419E-02    rms(broyden)= 0.73412E-02
  rms(prec ) = 0.92694E-02
  weight for this iteration     100.00

 eigenvalues of (default mixing * dielectric matrix)
  average eigenvalue GAMMA=   1.1313
  2.6898  2.6898  1.6376  1.6376  1.6034  0.9035  0.9035  0.8848  0.8848  0.6728
  0.6728  0.2839  0.2839  0.0899

 Free energy of the ion-electron system (eV)
  ---------------------------------------------------
  alpha Z        PSCENC =       178.53390476
  Ewald energy   TEWEN  =     30156.39394529
  -Hartree energ DENC   =    -36213.68322986
  -exchange      EXHF   =         0.00000000
  -V(xc)+E(xc)   XCENC  =        23.99506073
  PAW double counting   =      7015.34585566    -6810.55457538
  entropy T*S    EENTRO =        -0.01088543
  eigenvalues    EBANDS =      -229.18989746
  atomic energy  EATOM  =      5832.89561447
  Solvation  Ediel_sol  =         0.00000000
  ---------------------------------------------------
  free energy    TOTEN  =       -46.27420723 eV

  energy without entropy =      -46.26332180  energy(sigma->0) =      -46.27057875


--------------------------------------------------------------------------------------------------------




--------------------------------------- Iteration      1(  20)  ---------------------------------------


    POTLOK:  cpu time    0.0057: real time    0.0060
    SETDIJ:  cpu time    0.0024: real time    0.0024
    EDDIAG:  cpu time    0.4966: real time    0.5044
  RMM-DIIS:  cpu time    0.3498: real time    0.3517
    ORTHCH:  cpu time    0.0358: real time    0.0363
       DOS:  cpu time    0.0023: real time    0.0023
    CHARGE:  cpu time    0.0522: real time    0.0522
    MIXING:  cpu time    0.0009: real time    0.0009
    --------------------------------------------
      LOOP:  cpu time    0.9458: real time    0.9562

 eigenvalue-minimisations  :  4658
 total energy-change (2. order) : 0.2461075E-04  (-0.6385114E-05)
 number of electron      79.9999993 magnetization 
 augmentation part       24.8691872 magnetization 

 DIPCOR: dipole corrections for dipol
 direction  3 min pos   166,
 dipolmoment           0.000000      0.000000     -0.000718 electrons x Angstroem
 Tr[quadrupol]      -256.739453

 energy correction for charged system         0.000000 eV
 dipol+quadrupol energy correction           -0.000000 eV
 added-field ion interaction         -0.013212 eV  (added to PSCEN)


 Broyden mixing:
  rms(total) = 0.47360E-02    rms(broyden)= 0.47356E-02
  rms(prec ) = 0.69284E-02
  weight for this iteration     100.00

 eigenvalues of (default mixing * dielectric matrix)
  average eigenvalue GAMMA=   1.1096
  2.7858  2.7858  1.6390  1.6390  1.6468  0.0899  0.2839  0.2839  0.8950  0.8950
  0.6768  0.6768  0.7674  0.7674  0.8115

 Free energy of the ion-electron system (eV)
  ---------------------------------------------------
  alpha Z        PSCENC =       178.51846100
  Ewald energy   TEWEN  =     30156.39394529
  -Hartree energ DENC   =    -36214.06598365
  -exchange      EXHF   =         0.00000000
  -V(xc)+E(xc)   XCENC  =        23.99830376
  PAW double counting   =      7014.52472108    -6809.71793948
  entropy T*S    EENTRO =        -0.01084723
  eigenvalues    EBANDS =      -228.81045784
  atomic energy  EATOM  =      5832.89561447
  Solvation  Ediel_sol  =         0.00000000
  ---------------------------------------------------
  free energy    TOTEN  =       -46.27418262 eV

  energy without entropy =      -46.26333538  energy(sigma->0) =      -46.27056687


--------------------------------------------------------------------------------------------------------




--------------------------------------- Iteration      1(  21)  ---------------------------------------


    POTLOK:  cpu time    0.0058: real time    0.0063
    SETDIJ:  cpu time    0.0024: real time    0.0024
    EDDIAG:  cpu time    0.5156: real time    0.5239
  RMM-DIIS:  cpu time    0.2715: real time    0.2730
    ORTHCH:  cpu time    0.0355: real time    0.0359
       DOS:  cpu time    0.0023: real time    0.0023
    --------------------------------------------
      LOOP:  cpu time    0.8330: real time    0.8438

 eigenvalue-minimisations  :  3248
 total energy-change (2. order) : 0.5931268E-05  (-0.1146488E-05)
 number of electron      79.9999993 magnetization 
 augmentation part       24.8691872 magnetization 

 DIPCOR: dipole corrections for dipol
 direction  3 min pos   168,
 dipolmoment           0.000000      0.000000     -0.000933 electrons x Angstroem
 Tr[quadrupol]      -256.744912

 energy correction for charged system         0.000000 eV
 dipol+quadrupol energy correction           -0.000000 eV
 added-field ion interaction         -0.025049 eV  (added to PSCEN)


 Free energy of the ion-electron system (eV)
  ---------------------------------------------------
  alpha Z        PSCENC =       178.50662431
  Ewald energy   TEWEN  =     30156.39394529
  -Hartree energ DENC   =    -36214.21466864
  -exchange      EXHF   =         0.00000000
  -V(xc)+E(xc)   XCENC  =        23.99909410
  PAW double counting   =      7014.39517129    -6809.58578795
  entropy T*S    EENTRO =        -0.01084396
  eigenvalues    EBANDS =      -228.65332559
  atomic energy  EATOM  =      5832.89561447
  Solvation  Ediel_sol  =         0.00000000
  ---------------------------------------------------
  free energy    TOTEN  =       -46.27417669 eV

  energy without entropy =      -46.26333273  energy(sigma->0) =      -46.27056204


--------------------------------------------------------------------------------------------------------




 average (electrostatic) potential at core
  the test charge radii are     1.2059
  (the norm of the test charge is              1.0000)
       1 -73.3484       2 -73.7965       3 -73.7964       4 -73.3484       5 -73.7965
       6 -73.7964       7 -73.3480       8 -73.3480
 
 
 
[...]


 stress matrix after NEB project (eV)
     -8.34943      0.00000     -0.03846
      0.00000     -8.41334      0.00000
     -0.03846      0.00000      0.04054
  FORCES: max atom, RMS     0.011460    0.007170
  FORCE total and by dimension    0.020279    0.011460
  Stress total and by dimension   11.853350    8.413342
 Quasi-Newton relaxation of ions (Broydens 2nd method)
  g(Force)  = 0.397E-05   g(Stress)= 0.000E+00

 retain information from N=  1 steps
 eigenvalues of (default step * inverse Hessian matrix)
  average eigenvalue of G=   1.2702
 eigenvalue spectrum of G is  1.2702


--------------------------------------------------------------------------------------------------------


    WAVPRE:  cpu time    0.0030: real time    0.0044
    FEWALD:  cpu time    0.0006: real time    0.0006
    ORTHCH:  cpu time    0.0698: real time    0.0700
     LOOP+:  cpu time    6.7592: real time    6.7957


--------------------------------------- Iteration     12(   1)  ---------------------------------------


    POTLOK:  cpu time    0.0063: real time    0.0065
    SETDIJ:  cpu time    0.0023: real time    0.0023
     EDDAV:  cpu time    2.4227: real time    2.4674
       DOS:  cpu time    0.0023: real time    0.0023
    CHARGE:  cpu time    0.0506: real time    0.0507
    MIXING:  cpu time    0.0004: real time    0.0004
    --------------------------------------------
      LOOP:  cpu time    2.4847: real time    2.5296

 eigenvalue-minimisations  :  6424
 total energy-change (2. order) :-0.1965623E-05  (-0.1627013E-04)
 number of electron      80.0000010 magnetization 
 augmentation part       24.8668762 magnetization 

 DIPCOR: dipole corrections for dipol
 direction  3 min pos   166,
 dipolmoment           0.000000      0.000000      0.000406 electrons x Angstroem
 Tr[quadrupol]      -256.781806

 energy correction for charged system         0.000000 eV
 dipol+quadrupol energy correction           -0.000000 eV
 added-field ion interaction          0.007599 eV  (added to PSCEN)


  free energy =  -0.462784443408E+02  energy without entropy=  -0.462679696001E+02


--------------------------------------------------------------------------------------------------------




--------------------------------------- Iteration     12(   2)  ---------------------------------------


    POTLOK:  cpu time    0.0066: real time    0.0069
    SETDIJ:  cpu time    0.0023: real time    0.0023
    EDDIAG:  cpu time    0.5010: real time    0.5034
  RMM-DIIS:  cpu time    0.2692: real time    0.2698
    ORTHCH:  cpu time    0.0355: real time    0.0355
       DOS:  cpu time    0.0023: real time    0.0023
    CHARGE:  cpu time    0.0516: real time    0.0517
    MIXING:  cpu time    0.0004: real time    0.0004
    --------------------------------------------
      LOOP:  cpu time    0.8689: real time    0.8723

 eigenvalue-minimisations  :  3053
 total energy-change (2. order) :-0.3906570E-04  (-0.9189701E-06)
 number of electron      80.0000010 magnetization 
 augmentation part       24.8667900 magnetization 

 DIPCOR: dipole corrections for dipol
 direction  3 min pos   165,
 dipolmoment           0.000000      0.000000     -0.000150 electrons x Angstroem
 Tr[quadrupol]      -256.782126

 energy correction for charged system         0.000000 eV
 dipol+quadrupol energy correction           -0.000000 eV
 added-field ion interaction         -0.002180 eV  (added to PSCEN)


 eigenvalues of (default mixing * dielectric matrix)
  average eigenvalue GAMMA=   0.0709
  0.0709

  free energy =  -0.462784834065E+02  energy without entropy=  -0.462679958094E+02


--------------------------------------------------------------------------------------------------------




--------------------------------------- Iteration     12(   3)  ---------------------------------------


    POTLOK:  cpu time    0.0055: real time    0.0056
    SETDIJ:  cpu time    0.0024: real time    0.0024
    EDDIAG:  cpu time    0.4980: real time    0.5009
  RMM-DIIS:  cpu time    0.2603: real time    0.2606
    ORTHCH:  cpu time    0.0371: real time    0.0373
       DOS:  cpu time    0.0023: real time    0.0023
    CHARGE:  cpu time    0.0515: real time    0.0516
    MIXING:  cpu time    0.0005: real time    0.0005
    --------------------------------------------
      LOOP:  cpu time    0.8575: real time    0.8612

 eigenvalue-minimisations  :  2992
 total energy-change (2. order) : 0.3864533E-04  (-0.4470232E-06)
 number of electron      80.0000010 magnetization 
 augmentation part       24.8668242 magnetization 

 DIPCOR: dipole corrections for dipol
 direction  3 min pos   164,
 dipolmoment           0.000000      0.000000      0.000417 electrons x Angstroem
 Tr[quadrupol]      -256.782290

 energy correction for charged system         0.000000 eV
 dipol+quadrupol energy correction           -0.000000 eV
 added-field ion interaction          0.004281 eV  (added to PSCEN)


 eigenvalues of (default mixing * dielectric matrix)
  average eigenvalue GAMMA=   0.2124
  0.3655  0.0592

  free energy =  -0.462784447612E+02  energy without entropy=  -0.462679637354E+02


--------------------------------------------------------------------------------------------------------




--------------------------------------- Iteration     12(   4)  ---------------------------------------


    POTLOK:  cpu time    0.0055: real time    0.0056
    SETDIJ:  cpu time    0.0024: real time    0.0024
    EDDIAG:  cpu time    0.5626: real time    0.5676
  RMM-DIIS:  cpu time    0.2056: real time    0.2060
    ORTHCH:  cpu time    0.0355: real time    0.0356
       DOS:  cpu time    0.0023: real time    0.0023
    --------------------------------------------
      LOOP:  cpu time    0.8139: real time    0.8195

 eigenvalue-minimisations  :  1800
 total energy-change (2. order) : 0.2694560E-06  (-0.7924727E-07)
 number of electron      80.0000010 magnetization 
 augmentation part       24.8668242 magnetization 

 DIPCOR: dipole corrections for dipol
 direction  3 min pos   163,
 dipolmoment           0.000000      0.000000      0.000372 electrons x Angstroem
 Tr[quadrupol]      -256.781543

 energy correction for charged system         0.000000 eV
 dipol+quadrupol energy correction           -0.000000 eV
 added-field ion interaction          0.002257 eV  (added to PSCEN)


  free energy =  -0.462784444917E+02  energy without entropy=  -0.462679699770E+02


--------------------------------------------------------------------------------------------------------




------------------------ aborting loop because EDIFF is reached ----------------------------------------


    CHARGE:  cpu time    0.0512: real time    0.0514
    FORLOC:  cpu time    0.0002: real time    0.0002
    FORNL :  cpu time    0.3376: real time    0.3379
    STRESS:  cpu time    0.5040: real time    0.5212
    FORCOR:  cpu time    0.0105: real time    0.0122
    FORHAR:  cpu time    0.0013: real time    0.0013
    MIXING:  cpu time    0.0003: real time    0.0003
    OFIELD:  cpu time    0.0000: real time    0.0000

  FORCE on cell =-STRESS in cart. coord.  units (eV):
  Direction    XX          YY          ZZ          XY          YZ          ZX
  --------------------------------------------------------------------------------------
  Alpha Z   178.53167   178.53167   178.53167
  Ewald   34638.00997 34638.00997-39048.04271     0.00000     0.00000     0.00000
  Hartree 35930.20107 35929.91459-35573.55971     0.00000    -0.00000    -0.04746
  E(xc)    -353.60213  -353.58295  -356.00428     0.00000    -0.00000     0.00555
  Local  -72004.93701-72003.82980 73154.44166     0.00000    -0.00000     0.20017
  n-local    34.80594    34.00487    29.14256    20.73124    -2.65928     0.03975
  augment   417.18489   417.19839   430.14986    -0.00000     0.00000    -0.07964
  Kinetic  1151.46002  1151.34353  1185.39395     6.66038    -3.56703    -0.15675
  Fock        0.00000     0.00000     0.00000     0.00000     0.00000     0.00000
  -------------------------------------------------------------------------------------
  Total      -8.34556    -8.40973     0.05299     0.00000     0.00000    -0.03838
  in kB     -39.23843   -39.54010     0.24915     0.00000     0.00000    -0.18046
  external pressure =      -26.18 kB  Pullay stress =        0.00 kB



--------------------------------------------------------------------------------------------------------



  FREE ENERGIE OF THE ION-ELECTRON SYSTEM (eV)
  ---------------------------------------------------
  free  energy   TOTEN  =       -46.27844449 eV

  energy  without entropy=      -46.26796998  energy(sigma->0) =      -46.27495299
 
 d Force = 0.3254205E-05[ 0.310E-05, 0.341E-05]  d Energy = 0.2814289E-05 0.440E-06
 d Force =-0.5955732E+00[-0.596E+00,-0.596E+00]  d Ewald  =-0.5955732E+00 0.764E-10


--------------------------------------------------------------------------------------------------------


    POTLOK:  cpu time    0.0179: real time    0.0181


--------------------------------------------------------------------------------------------------------


 stress matrix after NEB project (eV)
     -8.34556      0.00000     -0.03838
      0.00000     -8.40973      0.00000
     -0.03838      0.00000      0.05299
  FORCES: max atom, RMS     0.011100    0.006558
  FORCE total and by dimension    0.018549    0.011100
  Stress total and by dimension   11.848108    8.409725
 Quasi-Newton relaxation of ions (Broydens 2nd method)
  g(Force)  = 0.332E-05   g(Stress)= 0.000E+00

 retain information from N=  1 steps
 eigenvalues of (default step * inverse Hessian matrix)
  average eigenvalue of G=   5.6484
 eigenvalue spectrum of G is  5.6484


--------------------------------------------------------------------------------------------------------


    WAVPRE:  cpu time    0.0026: real time    0.0044
    FEWALD:  cpu time    0.0002: real time    0.0002
    ORTHCH:  cpu time    0.0705: real time    0.0706
     LOOP+:  cpu time    6.0268: real time    6.1060


--------------------------------------- Iteration     13(   1)  ---------------------------------------


    POTLOK:  cpu time    0.0064: real time    0.0065
    SETDIJ:  cpu time    0.0023: real time    0.0023
     EDDAV:  cpu time    2.2639: real time    2.3854
       DOS:  cpu time    0.0023: real time    0.0023
    CHARGE:  cpu time    0.0516: real time    0.0516
    MIXING:  cpu time    0.0004: real time    0.0004
    --------------------------------------------
      LOOP:  cpu time    2.3270: real time    2.4485

 eigenvalue-minimisations  :  5776
 total energy-change (2. order) :-0.1339712E-04  (-0.5782475E-03)
 number of electron      80.0000011 magnetization 
 augmentation part       24.8667021 magnetization 

 DIPCOR: dipole corrections for dipol
 direction  3 min pos   163,
 dipolmoment           0.000000      0.000000      0.000371 electrons x Angstroem
 Tr[quadrupol]      -256.781676

 energy correction for charged system         0.000000 eV
 dipol+quadrupol energy correction           -0.000000 eV
 added-field ion interaction          0.002252 eV  (added to PSCEN)


  free energy =  -0.462784581583E+02  energy without entropy=  -0.462680026151E+02


--------------------------------------------------------------------------------------------------------




--------------------------------------- Iteration     13(   2)  ---------------------------------------


    POTLOK:  cpu time    0.0057: real time    0.0060
    SETDIJ:  cpu time    0.0032: real time    0.0034
    EDDIAG:  cpu time    0.4997: real time    0.5052
  RMM-DIIS:  cpu time    0.3754: real time    0.3784
    ORTHCH:  cpu time    0.0358: real time    0.0365
       DOS:  cpu time    0.0024: real time    0.0024
    CHARGE:  cpu time    0.0525: real time    0.0529
    MIXING:  cpu time    0.0004: real time    0.0004
    --------------------------------------------
      LOOP:  cpu time    0.9752: real time    0.9852

 eigenvalue-minimisations  :  4911
 total energy-change (2. order) :-0.3566646E-04  (-0.7327617E-05)
 number of electron      80.0000011 magnetization 
 augmentation part       24.8666573 magnetization 

 DIPCOR: dipole corrections for dipol
 direction  3 min pos   163,
 dipolmoment           0.000000      0.000000     -0.000106 electrons x Angstroem
 Tr[quadrupol]      -256.782333

 energy correction for charged system         0.000000 eV
 dipol+quadrupol energy correction           -0.000000 eV
 added-field ion interaction         -0.000645 eV  (added to PSCEN)


 eigenvalues of (default mixing * dielectric matrix)
  average eigenvalue GAMMA=   0.0830
  0.0830

  free energy =  -0.462784938248E+02  energy without entropy=  -0.462680231699E+02


--------------------------------------------------------------------------------------------------------




--------------------------------------- Iteration     13(   3)  ---------------------------------------


    POTLOK:  cpu time    0.0064: real time    0.0068
    SETDIJ:  cpu time    0.0023: real time    0.0023
    EDDIAG:  cpu time    0.4956: real time    0.5010
  RMM-DIIS:  cpu time    0.2642: real time    0.2651
    ORTHCH:  cpu time    0.0359: real time    0.0359
       DOS:  cpu time    0.0023: real time    0.0023
    CHARGE:  cpu time    0.0514: real time    0.0515
    MIXING:  cpu time    0.0005: real time    0.0005
    --------------------------------------------
      LOOP:  cpu time    0.8587: real time    0.8654

 eigenvalue-minimisations  :  3005
 total energy-change (2. order) : 0.2827030E-04  (-0.7486142E-06)
 number of electron      80.0000011 magnetization 
 augmentation part       24.8667087 magnetization 

 DIPCOR: dipole corrections for dipol
 direction  3 min pos   163,
 dipolmoment           0.000000      0.000000      0.000423 electrons x Angstroem
 Tr[quadrupol]      -256.782351

 energy correction for charged system         0.000000 eV
 dipol+quadrupol energy correction           -0.000000 eV
 added-field ion interaction          0.002569 eV  (added to PSCEN)


 eigenvalues of (default mixing * dielectric matrix)
  average eigenvalue GAMMA=   0.3503
  0.6395  0.0610

  free energy =  -0.462784655545E+02  energy without entropy=  -0.462680017747E+02


--------------------------------------------------------------------------------------------------------




--------------------------------------- Iteration     13(   4)  ---------------------------------------


    POTLOK:  cpu time    0.0059: real time    0.0060
    SETDIJ:  cpu time    0.0024: real time    0.0024
    EDDIAG:  cpu time    0.4945: real time    0.5002
  RMM-DIIS:  cpu time    0.2312: real time    0.2313
    ORTHCH:  cpu time    0.0369: real time    0.0369
       DOS:  cpu time    0.0024: real time    0.0024
    --------------------------------------------
      LOOP:  cpu time    0.7731: real time    0.7791

 eigenvalue-minimisations  :  2892
 total energy-change (2. order) :-0.5038955E-06  (-0.3949087E-06)
 number of electron      80.0000011 magnetization 
 augmentation part       24.8667087 magnetization 

 DIPCOR: dipole corrections for dipol
 direction  3 min pos   163,
 dipolmoment           0.000000      0.000000      0.000324 electrons x Angstroem
 Tr[quadrupol]      -256.781002

 energy correction for charged system         0.000000 eV
 dipol+quadrupol energy correction           -0.000000 eV
 added-field ion interaction          0.001966 eV  (added to PSCEN)


  free energy =  -0.462784660584E+02  energy without entropy=  -0.462680140575E+02


--------------------------------------------------------------------------------------------------------




------------------------ aborting loop because EDIFF is reached ----------------------------------------


    CHARGE:  cpu time    0.0514: real time    0.0514
    FORLOC:  cpu time    0.0002: real time    0.0002
    FORNL :  cpu time    0.3430: real time    0.3448
    STRESS:  cpu time    0.4301: real time    0.4312
    FORCOR:  cpu time    0.0046: real time    0.0046
    FORHAR:  cpu time    0.0012: real time    0.0012
    MIXING:  cpu time    0.0003: real time    0.0003
    OFIELD:  cpu time    0.0000: real time    0.0000

  FORCE on cell =-STRESS in cart. coord.  units (eV):
  Direction    XX          YY          ZZ          XY          YZ          ZX
  --------------------------------------------------------------------------------------
  Alpha Z   178.53167   178.53167   178.53167
  Ewald   34641.74091 34641.74091-39051.81141     0.00000     0.00000     0.00000
  Hartree 35934.58092 35934.29467-35577.95319     0.00000    -0.00000    -0.04756
  E(xc)    -353.60513  -353.58601  -356.00647    -0.00000     0.00000     0.00558
  Local  -72013.06483-72011.95917 73162.62681    -0.00000     0.00000     0.20090
  n-local    34.81969    34.01893    29.17041    20.72903    -2.65883     0.04001
  augment   417.18887   417.20274   430.13886     0.00000    -0.00000    -0.07992
  Kinetic  1151.47644  1151.36064  1185.38175     6.66043    -3.56530    -0.15719
  Fock        0.00000     0.00000     0.00000     0.00000     0.00000     0.00000
  -------------------------------------------------------------------------------------
  Total      -8.33145    -8.39562     0.07844     0.00000     0.00000    -0.03819
  in kB     -39.17210   -39.47380     0.36881     0.00000     0.00000    -0.17955
  external pressure =      -26.09 kB  Pullay stress =        0.00 kB



--------------------------------------------------------------------------------------------------------



  FREE ENERGIE OF THE ION-ELECTRON SYSTEM (eV)
  ---------------------------------------------------
  free  energy   TOTEN  =       -46.27846606 eV

  energy  without entropy=      -46.26801406  energy(sigma->0) =      -46.27498206
 
 d Force = 0.1727782E-04[ 0.158E-04, 0.188E-04]  d Energy = 0.2156664E-04-0.429E-05
 d Force =-0.3693186E+01[-0.369E+01,-0.369E+01]  d Ewald  =-0.3693186E+01 0.115E-08


--------------------------------------------------------------------------------------------------------


    POTLOK:  cpu time    0.0080: real time    0.0080


--------------------------------------------------------------------------------------------------------


 stress matrix after NEB project (eV)
     -8.33145      0.00000     -0.03819
      0.00000     -8.39562      0.00000
     -0.03819      0.00000      0.07844
  FORCES: max atom, RMS     0.009256    0.005506
  FORCE total and by dimension    0.015573    0.009256
  Stress total and by dimension   11.828300    8.395623
 Quasi-Newton relaxation of ions (Broydens 2nd method)
  g(Force)  = 0.234E-05   g(Stress)= 0.000E+00

 retain information from N=  1 steps
 eigenvalues of (default step * inverse Hessian matrix)
  average eigenvalue of G=  35.1511
 eigenvalue spectrum of G is 35.1511


--------------------------------------------------------------------------------------------------------


  
 reached required accuracy - stopping structural energy minimisation
     LOOP+:  cpu time    5.7808: real time    5.9294
    4ORBIT:  cpu time    0.0000: real time    0.0000

 total amount of memory used by VASP MPI-rank0    42852. kBytes
=======================================================================

   base      :      30000. kBytes
   nonl-proj :       7084. kBytes
   fftplans  :        409. kBytes
   grid      :        552. kBytes
   one-center:         15. kBytes
   wavefun   :       4792. kBytes
 
  
  
 General timing and accounting informations for this job:
 ========================================================
  
                  Total CPU time used (sec):      135.700
                            User time (sec):      130.737
                          System time (sec):        4.963
                         Elapsed time (sec):      140.142
  
                   Maximum memory used (kb):      105260.
                   Average memory used (kb):           0.
  
                          Minor page faults:       315353
                          Major page faults:           57
                 Voluntary context switches:        11210
