LAMMPS data file via write_data, version 29 Aug 2024, timestep = 1, units = real

3074 atoms
2 atom types

0 38.69394839813112 xlo xhi
0 44.67992515978285 ylo yhi
0 60 zlo zhi

Masses

1 16
2 195.08

Atoms # charge

1 2 4.348826640430958e-05 0 0 0 0 0 0
2 2 1.13005424474677e-05 3.224495715456953 5.858527971696785e-14 2.2791346268699826 0 0 0
3 2 1.937371998837756e-05 1.612247834309418 2.7119403369796613e-13 4.5579935146893185 0 0 0
4 2 4.323018618375418e-05 2.418371774883195 1.396247661243214 0 0 0 0
5 2 1.104322183595463e-05 0.8061239405737148 1.3962476612433135 2.2791346268700745 0 0 0
6 2 1.979844337170189e-05 4.030619609192654 1.396247661243503 4.557993514689204 0 0 0
7 2 2.100388260390523e-05 38.693948398131056 1.7042809927860579e-13 6.836987087546539 -1 0 0
8 2 1.923441789319219e-05 3.2244957154568934 44.67992515978284 9.115982762494461 0 -1 0
9 2 2.108964263619617e-05 1.6122478343094255 44.67992515978273 11.394978497002025 0 -1 0
10 2 2.142721765616834e-05 2.418371774883199 1.3962476612435666 6.83698708754645 0 0 0
11 2 1.975142792903783e-05 0.8061239405737894 1.3962476612432355 9.115982762494365 0 0 0
12 2 2.104335316648054e-05 4.030619609192369 1.3962476612429948 11.3949784970019 0 0 0
13 2 2.123805453799893e-05 2.290856653126124e-13 44.67992515978268 13.673974172995848 0 -1 0
14 2 1.983007440799905e-05 3.2244957154567255 44.67992515978266 15.952969848992186 0 -1 0
15 2 2.258594429908889e-05 1.612247834309424 44.679925159782606 18.231965582451117 0 -1 0
16 2 2.084379950995086e-05 2.4183717748830422 1.3962476612428658 13.6739741729958 0 0 0
17 2 1.902598909530456e-05 0.8061239405739351 1.3962476612428243 15.952969848992161 0 0 0
18 2 2.154244718314408e-05 4.03061960919249 1.3962476612431025 18.231965582451274 0 0 0
19 2 2.077410861230783e-05 1.5905213942901938e-13 44.67992515978272 20.51095915530857 0 -1 0
20 2 1.174332157179506e-05 3.2244957154570204 44.67992515978282 22.78981798462815 0 -1 0
21 2 4.306230118326926e-05 1.6122478335309196 44.67992515978266 25.069071240874543 0 -1 0
22 2 2.023496305236794e-05 2.4183717748832314 1.396247661243013 20.510959155308722 0 0 0
23 2 1.149061793683306e-05 0.8061239405738092 1.3962476612431816 22.789817984628165 0 0 0
24 2 4.327933780368109e-05 4.030619608414513 1.3962476612435908 25.069071240874383 0 0 0
25 2 4.268067474533233e-05 0 2.792495322486428 0 0 0 0
26 2 1.075896854726976e-05 3.224495715456923 2.7924953224865177 2.2791346268701966 0 0 0
27 2 1.969875397125898e-05 1.6122478343094262 2.7924953224868805 4.557993514689194 0 0 0
28 2 4.228059486149904e-05 2.418371774883195 4.188742983729642 0 0 0 0
29 2 1.047029837995123e-05 0.8061239405737318 4.188742983729707 2.2791346268703383 0 0 0
30 2 2.047368542229533e-05 4.030619609192392 4.188742983729918 4.557993514689198 0 0 0
31 2 2.223807810648043e-05 6.339907181867119e-14 2.792495322486843 6.836987087546339 0 0 0
32 2 2.034950047569151e-05 3.2244957154569307 2.792495322486513 9.115982762494165 0 0 0
33 2 2.146955822899393e-05 1.6122478343094182 2.792495322486163 11.394978497001885 0 0 0
34 2 2.28569651360977e-05 2.418371774883132 4.188742983730084 6.836987087546246 0 0 0
35 2 2.093810477449276e-05 0.8061239405738156 4.188742983729805 9.115982762493962 0 0 0
36 2 2.044701748363242e-05 4.030619609192287 4.18874298372926 11.394978497001523 0 0 0
37 2 1.995565445948172e-05 3.2792568571372526e-13 2.792495322485871 13.673974172995685 0 0 0
38 2 1.799735124803636e-05 3.224495715456839 2.792495322486022 15.952969848992272 0 0 0
39 2 2.028915154519972e-05 1.612247834309441 2.7924953224860127 18.231965582451195 0 0 0
40 2 1.93340102598652e-05 2.4183717748830933 4.1887429837289645 13.673974172995578 0 0 0
41 2 1.706444257991435e-05 0.8061239405736842 4.188742983729182 15.952969848992346 0 0 0
42 2 2.172136172856609e-05 4.030619609193456 4.188742983730096 18.23196558245173 0 0 0
43 2 2.018505713825142e-05 38.693948398130715 2.7924953224866154 20.51095915530893 -1 0 0
44 2 1.172719186267809e-05 3.224495715457278 2.792495322486583 22.78981798462819 0 0 0
45 2 4.300641133567207e-05 1.612247833530891 2.7924953224868423 25.069071240873683 0 0 0
46 2 1.991033832775962e-05 2.4183717748835347 4.188742983730058 20.51095915530913 0 0 0
47 2 1.183833274562632e-05 0.8061239405737135 4.1887429837299575 22.78981798462821 0 0 0
48 2 4.353241690767395e-05 4.0306196084141686 4.188742983729708 25.069071240874727 0 0 0
49 2 4.196598171231358e-05 0 5.584990644972856 0 0 0 0
50 2 1.068209499987746e-05 3.2244957154569054 5.584990644972882 2.279134626870361 0 0 0
51 2 2.047860978861282e-05 1.6122478343094289 5.584990644973012 4.557993514689198 0 0 0
52 2 4.170713564778661e-05 2.418371774883195 6.98123830621607 0 0 0 0
53 2 1.083424567876329e-05 0.8061239405737352 6.981238306216072 2.2791346268703903 0 0 0
54 2 2.114697538928983e-05 4.030619609192373 6.981238306216092 4.557993514689352 0 0 0
55 2 2.303105812129225e-05 2.1406282105066296e-13 5.584990644973141 6.836987087546219 0 0 0
56 2 2.040508829223575e-05 3.2244957154567166 5.584990644972886 9.1159827624937 0 0 0
57 2 2.065956694208976e-05 1.612247834309431 5.584990644972467 11.394978497001263 0 0 0
58 2 2.325151077189197e-05 2.418371774883056 6.981238306216145 6.836987087546215 0 0 0
59 2 2.001784651201044e-05 0.8061239405739921 6.981238306215967 9.115982762493507 0 0 0
60 2 1.979482504781138e-05 4.0306196091925335 6.981238306215916 11.394978497001487 0 0 0
61 2 1.914182902031797e-05 38.693948398130956 5.584990644972502 13.6739741729958 -1 0 0
62 2 1.790209654376623e-05 3.224495715457663 5.584990644972977 15.952969848992755 0 0 0
63 2 2.066734801145498e-05 1.6122478343093969 5.584990644973432 18.231965582451927 0 0 0
64 2 1.86955329788685e-05 2.418371774883527 6.981238306215858 13.673974172995859 0 0 0
65 2 1.833308908962689e-05 0.8061239405731709 6.981238306216532 15.95296984899305 0 0 0
66 2 2.290992001321296e-05 4.030619609192637 6.981238306215986 18.23196558245142 0 0 0
67 2 2.118203102639132e-05 38.693948398130814 5.58499064497337 20.510959155308726 -1 0 0
68 2 1.24057573948691e-05 3.2244957154568974 5.5849906449729865 22.789817984628105 0 0 0
69 2 4.395357770303754e-05 1.6122478335309158 5.58499064497384 25.06907124087505 0 0 0
70 2 2.227979758000209e-05 2.4183717748828433 6.981238306216859 20.510959155308587 0 0 0
71 2 1.313936734041038e-05 0.8061239405743242 6.981238306216218 22.78981798462803 0 0 0
72 2 4.217001683826105e-05 4.030619608411426 6.981238306214694 25.069071240873278 0 0 0
73 2 4.17431166397364e-05 0 8.377485967459284 0 0 0 0
74 2 1.144080439336934e-05 3.2244957154569107 8.377485967459286 2.279134626870296 0 0 0
75 2 2.171634603900102e-05 1.6122478343094244 8.377485967459119 4.557993514689321 0 0 0
76 2 4.145555598636386e-05 2.418371774883195 9.773733628702498 0 0 0 0
77 2 1.183618937134964e-05 0.80612394057373 9.7737336287025 2.2791346268702046 0 0 0
78 2 2.165595775315693e-05 4.030619609192438 9.773733628702255 4.557993514689328 0 0 0
79 2 2.271453241772803e-05 3.922080804395077e-13 8.377485967459018 6.836987087546067 0 0 0
80 2 1.87185477001639e-05 3.224495715456534 8.377485967458897 9.115982762493388 0 0 0
81 2 1.855585251504116e-05 1.6122478343094293 8.37748596745877 11.394978497000997 0 0 0
82 2 2.274956106800008e-05 2.4183717748829547 9.773733628701976 6.836987087546 0 0 0
83 2 1.776684641723036e-05 0.8061239405739962 9.773733628701857 9.115982762493244 0 0 0
84 2 2.011019904325784e-05 4.030619609193606 9.773733628702706 11.394978497002228 0 0 0
85 2 2.015916414944974e-05 38.693948398129976 8.377485967459675 13.673974172996484 -1 0 0
86 2 2.056651976648644e-05 3.224495715457726 8.377485967459993 15.952969848993165 0 0 0
87 2 2.466430122596147e-05 1.6122478343094147 8.377485967460776 18.231965582452485 0 0 0
88 2 2.01731456241222e-05 2.4183717748839273 9.773733628703056 13.673974172996894 0 0 0
89 2 2.201480392904909e-05 0.806123940573727 9.773733628703583 15.952969848993607 0 0 0
90 2 2.084920818030966e-05 4.030619609188902 9.773733628700914 18.231965582450172 0 0 0
91 2 2.128566420351446e-05 2.3408883167785473e-12 8.377485967458705 20.510959155308047 0 0 0
92 2 1.136512691222655e-05 3.2244957154557894 8.377485967458826 22.789817984627945 0 0 0
93 2 4.379041447725995e-05 1.6122478335309933 8.377485967458144 25.069071240875306 0 0 0
94 2 2.238865164277265e-05 2.4183717748811078 9.773733628701704 20.510959155307408 0 0 0
95 2 1.13180636479894e-05 0.8061239405747636 9.773733628701796 22.789817984627796 0 0 0
96 2 4.109064908493221e-05 4.030619608414134 9.773733628703305 25.069071240871914 0 0 0
97 2 4.165223924196271e-05 0 11.169981289945712 0 0 0 0
98 2 1.224811067161019e-05 3.2244957154569156 11.169981289945708 2.27913462687009 0 0 0
99 2 2.27765317097825e-05 1.612247834309423 11.169981289945406 4.557993514689329 0 0 0
100 2 4.123023130429837e-05 2.418371774883195 12.566228951188926 0 0 0 0
101 2 1.248908353379541e-05 0.8061239405737263 12.566228951188895 2.2791346268699733 0 0 0
102 2 2.17190367567538e-05 4.030619609192373 12.566228951188517 4.557993514688966 0 0 0
103 2 2.201102166658753e-05 5.502116710938986e-13 11.169981289944975 6.836987087545729 0 0 0
104 2 1.718135079763899e-05 3.2244957154568787 11.169981289945095 9.115982762493521 0 0 0
105 2 1.76803443747639e-05 1.612247834309388 11.169981289945405 11.394978497001746 0 0 0
106 2 2.198614777791652e-05 2.418371774882892 12.566228951188103 6.836987087545524 0 0 0
107 2 1.63970367063615e-05 0.8061239405736657 12.566228951188233 9.115982762493417 0 0 0
108 2 2.166228459605374e-05 4.03061960919461 12.566228951189181 11.394978497002974 0 0 0
109 2 2.233752608793438e-05 38.69394839813005 11.169981289946234 13.673974172996958 -1 0 0
110 2 2.213279149895081e-05 3.224495715455076 11.1699812899456 15.952969848992417 0 0 0
111 2 2.607896456837538e-05 1.6122478343096007 11.169981289945369 18.231965582450858 0 0 0
112 2 2.329409656267462e-05 2.418371774883517 12.566228951189714 13.673974172997813 0 0 0
113 2 2.394150333771827e-05 0.8061239405760825 12.566228951188977 15.952969848992645 0 0 0
114 2 1.667557766338312e-05 4.030619609189298 12.566228951188092 18.23196558245081 0 0 0
115 2 1.800293618364757e-05 2.5889177632861138e-12 11.169981289944753 20.51095915530879 0 0 0
116 2 8.669605540845976e-06 3.2244957154568703 11.169981289945529 22.78981798462816 0 0 0
117 2 4.047980914742566e-05 1.6122478335308918 11.169981289943113 25.069071240871242 0 0 0
118 2 1.73972760153171e-05 2.418371774882102 12.566228951187329 20.510959155308118 0 0 0
119 2 6.835768974169237e-06 0.8061239405734831 12.566228951188501 22.78981798462806 0 0 0
120 2 4.48359519167052e-05 4.030619608425326 12.566228951194029 25.069071240876706 0 0 0
121 2 4.155958166421336e-05 0 13.96247661243214 0 0 0 0
122 2 1.24944768202552e-05 3.224495715456916 13.962476612432063 2.279134626869889 0 0 0
123 2 2.294486779600563e-05 1.6122478343094293 13.962476612431747 4.557993514689174 0 0 0
124 2 4.120902065361809e-05 2.418371774883195 15.358724273675351 0 0 0 0
125 2 1.262636768183112e-05 0.8061239405737218 15.358724273675229 2.2791346268698005 0 0 0
126 2 2.126374107217638e-05 4.030619609192249 15.358724273674882 4.557993514688571 0 0 0
127 2 2.134369540016806e-05 5.245762422644975e-13 13.96247661243138 6.836987087545491 0 0 0
128 2 1.703339777044122e-05 3.2244957154575586 13.962476612431747 9.115982762494045 0 0 0
129 2 1.93012580567975e-05 1.6122478343093545 13.96247661243229 11.394978497003033 0 0 0
130 2 2.103503522522809e-05 2.418371774882939 15.358724273674627 6.836987087545241 0 0 0
131 2 1.622873908892208e-05 0.80612394057326 15.358724273675005 9.115982762493944 0 0 0
132 2 2.304895669200113e-05 4.030619609194229 15.358724273675401 11.394978497002738 0 0 0
133 2 2.379390058284553e-05 1.2974488343610126e-12 13.962476612432035 13.673974172996214 0 0 0
134 2 2.034054576501021e-05 3.224495715452211 13.962476612431013 15.952969848991073 0 0 0
135 2 2.18707885287564e-05 1.6122478343096058 13.962476612429905 18.231965582448588 0 0 0
136 2 2.582996010899036e-05 2.418371774882044 15.358724273675767 13.673974172997431 0 0 0
137 2 2.257717403426895e-05 0.8061239405778552 15.358724273674342 15.952969848990703 0 0 0
138 2 1.662442271308656e-05 4.030619609194034 15.358724273676126 18.231965582453356 0 0 0
139 2 1.58246658010161e-05 38.693948398128995 13.962476612432306 20.51095915531053 -1 0 0
140 2 9.27871873300512e-06 3.224495715460061 13.962476612432752 22.78981798462864 0 0 0
141 2 3.761461554348255e-05 1.6122478335308073 13.96247661243152 25.069071240867682 0 0 0
142 2 1.258098102668165e-05 2.4183717748847613 15.358724273674726 20.5109591553102 0 0 0
143 2 5.180301626387523e-06 0.806123940572254 15.358724273675433 22.789817984628378 0 0 0
144 2 5.049139358800914e-05 4.030619608430847 15.358724273679693 25.069071240882774 0 0 0
145 2 4.170214505819225e-05 0 16.75497193491857 0 0 0 0
146 2 1.246581631785676e-05 3.2244957154569214 16.75497193491842 2.2791346268697423 0 0 0
147 2 2.243645266892386e-05 1.6122478343094377 16.75497193491815 4.55799351468902 0 0 0
148 2 4.150426767395021e-05 2.418371774883195 18.151219596161784 0 0 0 0
149 2 1.268858579710902e-05 0.8061239405737154 18.151219596161646 2.279134626869692 0 0 0
150 2 2.071966923083285e-05 4.0306196091921995 18.15121959616144 4.557993514688383 0 0 0
151 2 2.065388589601869e-05 3.0317357979143547e-13 16.75497193491805 6.836987087545591 0 0 0
152 2 1.747109243556422e-05 3.2244957154581293 16.754971934918466 9.115982762494681 0 0 0
153 2 2.155080410536081e-05 1.6122478343093791 16.754971934918995 11.394978497004201 0 0 0
154 2 2.010226960315331e-05 2.4183717748830453 18.151219596161365 6.836987087545292 0 0 0
155 2 1.63017753033734e-05 0.8061239405729925 18.1512195961617 9.11598276249451 0 0 0
156 2 2.324095140015386e-05 4.030619609192942 18.151219596161727 11.394978497001906 0 0 0
157 2 2.359032524615334e-05 4.282921389370548e-12 16.75497193491815 13.673974172994829 0 0 0
158 2 1.725513282729157e-05 3.2244957154521816 16.754971934917723 15.952969848990715 0 0 0
159 2 1.612581191105106e-05 1.6122478343092883 16.754971934917045 18.231965582448353 0 0 0
160 2 2.647663710327042e-05 2.4183717748805997 18.151219596161866 13.673974172996175 0 0 0
161 2 1.996697433905015e-05 0.8061239405776459 18.151219596161052 15.95296984898972 0 0 0
162 2 2.033018488330901e-05 4.030619609200794 18.151219596163134 18.231965582456805 0 0 0
163 2 1.767924842952656e-05 38.693948398122195 16.75497193491959 20.5109591553118 -1 0 0
164 2 1.342965629762619e-05 3.2244957154649767 16.75497193491968 22.7898179846292 0 0 0
165 2 3.831468202973587e-05 1.6122478335310715 16.7549719349199 25.069071240868677 0 0 0
166 2 1.140135368700446e-05 2.4183717748865927 18.1512195961618 20.5109591553115 0 0 0
167 2 6.8608080881008e-06 0.8061239405709322 18.151219596162054 22.789817984628762 0 0 0
168 2 5.277871175532467e-05 4.030619608421636 18.151219596162566 25.06907124088412 0 0 0
169 2 4.197696603916445e-05 0 19.547467257404996 0 0 0 0
170 2 1.249597254326246e-05 3.22449571545693 19.547467257404914 2.2791346268696606 0 0 0
171 2 2.198928357979857e-05 1.6122478343094422 19.5474672574048 4.5579935146889525 0 0 0
172 2 4.170734909576812e-05 2.418371774883195 20.943714918648215 0 0 0 0
173 2 1.275117927854522e-05 0.806123940573712 20.943714918648215 2.2791346268696526 0 0 0
174 2 2.050207016822403e-05 4.0306196091921995 20.943714918648215 4.557993514688346 0 0 0
175 2 2.014549019373896e-05 9.156054996876806e-14 19.54746725740481 6.8369870875458005 0 0 0
176 2 1.766727894460252e-05 3.2244957154584153 19.547467257404996 9.11598276249512 0 0 0
177 2 2.268757345790656e-05 1.6122478343094335 19.54746725740522 11.394978497004827 0 0 0
178 2 1.970521220585886e-05 2.4183717748830986 20.943714918648215 6.836987087545373 0 0 0
179 2 1.629032179095019e-05 0.8061239405729046 20.943714918648215 9.115982762494756 0 0 0
180 2 2.303852779807908e-05 4.0306196091923 20.943714918648215 11.394978497001503 0 0 0
181 2 2.270922153770755e-05 5.803107402826877e-12 19.54746725740481 13.673974172994038 0 0 0
182 2 1.527283791535883e-05 3.224495715453137 19.547467257404758 15.95296984899095 0 0 0
183 2 1.280303110540865e-05 1.6122478343090496 19.54746725740459 18.231965582448883 0 0 0
184 2 2.634134245828312e-05 2.418371774880079 20.943714918648215 13.673974172995562 0 0 0
185 2 1.873394165487902e-05 0.8061239405772289 20.943714918648215 15.952969848989575 0 0 0
186 2 2.242021143351869e-05 4.030619609204346 20.943714918648215 18.23196558245849 0 0 0
187 2 2.016042791708195e-05 38.69394839811717 19.547467257405582 20.510959155312356 -1 0 0
188 2 1.666668519436851e-05 3.2244957154678793 19.54746725740552 22.78981798462936 0 0 0
189 2 4.021887704790117e-05 1.612247833531438 19.547467257405877 25.06907124087103 0 0 0
190 2 1.162513592908865e-05 2.418371774887316 20.943714918648215 20.510959155311898 0 0 0
191 2 8.041072691002821e-06 0.8061239405703147 20.943714918648215 22.789817984628957 0 0 0
192 2 5.289544614268948e-05 4.03061960841495 20.943714918648215 25.069071240883776 0 0 0
193 2 4.197696603884526e-05 0 22.339962579891424 0 0 0 0
194 2 1.249597254336307e-05 3.22449571545693 22.339962579891505 2.2791346268696606 0 0 0
195 2 2.198928358036756e-05 1.6122478343094424 22.33996257989162 4.5579935146889525 0 0 0
196 2 4.150426767286775e-05 2.418371774883195 23.73621024113464 0 0 0 0
197 2 1.268858579582186e-05 0.8061239405737154 23.736210241134778 2.279134626869692 0 0 0
198 2 2.071966922986834e-05 4.0306196091921995 23.736210241134984 4.557993514688383 0 0 0
199 2 2.014549019319078e-05 9.154466286612217e-14 22.33996257989161 6.8369870875458005 0 0 0
200 2 1.766727894438047e-05 3.2244957154584153 22.339962579891424 9.11598276249512 0 0 0
201 2 2.268757345696287e-05 1.6122478343094335 22.3399625798912 11.394978497004827 0 0 0
202 2 2.010226960436762e-05 2.4183717748830453 23.73621024113506 6.836987087545292 0 0 0
203 2 1.630177530327626e-05 0.8061239405729925 23.736210241134724 9.11598276249451 0 0 0
204 2 2.324095139964039e-05 4.030619609192942 23.736210241134696 11.394978497001906 0 0 0
205 2 2.270922153965738e-05 5.8030788060421146e-12 22.33996257989161 13.673974172994038 0 0 0
206 2 1.527283791595557e-05 3.224495715453137 22.33996257989166 15.95296984899095 0 0 0
207 2 1.280303110604702e-05 1.6122478343090496 22.33996257989183 18.231965582448883 0 0 0
208 2 2.647663710270143e-05 2.4183717748805997 23.736210241134557 13.673974172996175 0 0 0
209 2 1.996697433801625e-05 0.8061239405776459 23.73621024113537 15.95296984898972 0 0 0
210 2 2.033018488280247e-05 4.030619609200794 23.73621024113329 18.231965582456805 0 0 0
211 2 2.016042791693623e-05 38.69394839811717 22.339962579890837 20.510959155312356 -1 0 0
212 2 1.666668519418116e-05 3.2244957154678793 22.3399625798909 22.78981798462936 0 0 0
213 2 4.021887704754035e-05 1.612247833531438 22.339962579890543 25.06907124087103 0 0 0
214 2 1.140135368609546e-05 2.4183717748865927 23.736210241134625 20.5109591553115 0 0 0
215 2 6.860808089349801e-06 0.8061239405709322 23.73621024113437 22.789817984628762 0 0 0
216 2 5.277871175565774e-05 4.030619608421636 23.736210241133858 25.06907124088412 0 0 0
217 2 4.170214505910819e-05 0 25.13245790237785 0 0 0 0
218 2 1.246581631820023e-05 3.2244957154569214 25.132457902378 2.2791346268697423 0 0 0
219 2 2.243645266740424e-05 1.6122478343094375 25.13245790237827 4.55799351468902 0 0 0
220 2 4.120902065436749e-05 2.418371774883195 26.528705563621067 0 0 0 0
221 2 1.262636768153275e-05 0.8061239405737218 26.52870556362119 2.2791346268698005 0 0 0
222 2 2.126374107381396e-05 4.030619609192249 26.528705563621536 4.557993514688571 0 0 0
223 2 2.065388589696238e-05 3.031672249503771e-13 25.13245790237837 6.836987087545591 0 0 0
224 2 1.747109243614708e-05 3.2244957154581293 25.132457902377954 9.115982762494681 0 0 0
225 2 2.155080410527754e-05 1.6122478343093791 25.132457902377425 11.394978497004201 0 0 0
226 2 2.103503522534605e-05 2.418371774882939 26.52870556362179 6.836987087545241 0 0 0
227 2 1.622873908899841e-05 0.80612394057326 26.528705563621415 9.115982762493944 0 0 0
228 2 2.304895669230644e-05 4.030619609194229 26.528705563621017 11.394978497002738 0 0 0
229 2 2.359032524595905e-05 4.282911857108961e-12 25.13245790237827 13.673974172994829 0 0 0
230 2 1.725513282890834e-05 3.2244957154521816 25.132457902378697 15.952969848990715 0 0 0
231 2 1.612581191035023e-05 1.6122478343092883 25.132457902379375 18.231965582448353 0 0 0
232 2 2.582996010929567e-05 2.418371774882044 26.52870556362065 13.673974172997431 0 0 0
233 2 2.2577174033242e-05 0.8061239405778552 26.528705563622076 15.952969848990703 0 0 0
234 2 1.662442271387066e-05 4.030619609194034 26.528705563620292 18.231965582453356 0 0 0
235 2 1.767924842929064e-05 38.693948398122195 25.13245790237683 20.5109591553118 -1 0 0
236 2 1.34296562976817e-05 3.2244957154649767 25.13245790237674 22.7898179846292 0 0 0
237 2 3.831468203001342e-05 1.6122478335310715 25.13245790237652 25.069071240868677 0 0 0
238 2 1.258098102639715e-05 2.4183717748847613 26.528705563621692 20.5109591553102 0 0 0
239 2 5.180301625811595e-06 0.8061239405722539 26.528705563620985 22.789817984628378 0 0 0
240 2 5.049139358755117e-05 4.030619608430847 26.528705563616725 25.069071240882774 0 0 0
241 2 4.155958166547624e-05 0 27.92495322486428 0 0 0 0
242 2 1.249447682081378e-05 3.224495715456916 27.924953224864353 2.279134626869889 0 0 0
243 2 2.294486779542276e-05 1.6122478343094293 27.92495322486467 4.557993514689174 0 0 0
244 2 4.123023130377101e-05 2.418371774883195 29.321200886107494 0 0 0 0
245 2 1.248908353365663e-05 0.8061239405737263 29.321200886107526 2.2791346268699733 0 0 0
246 2 2.171903675655951e-05 4.030619609192373 29.321200886107903 4.557993514688966 0 0 0
247 2 2.134369540051501e-05 5.245571777413225e-13 27.92495322486504 6.836987087545491 0 0 0
248 2 1.703339777109347e-05 3.2244957154575586 27.92495322486467 9.115982762494045 0 0 0
249 2 1.930125805643668e-05 1.6122478343093543 27.92495322486413 11.394978497003033 0 0 0
250 2 2.198614777829816e-05 2.418371774882892 29.32120088610832 6.836987087545524 0 0 0
251 2 1.639703670569537e-05 0.8061239405736657 29.321200886108187 9.115982762493417 0 0 0
252 2 2.16622845960121e-05 4.03061960919461 29.32120088610724 11.394978497002974 0 0 0
253 2 2.379390058386555e-05 1.29742023757625e-12 27.92495322486438 13.673974172996214 0 0 0
254 2 2.034054576581512e-05 3.224495715452211 27.924953224865405 15.952969848991073 0 0 0
255 2 2.187078852847191e-05 1.6122478343096058 27.924953224866513 18.231965582448588 0 0 0
256 2 2.329409656318809e-05 2.418371774883517 29.321200886106705 13.673974172997813 0 0 0
257 2 2.394150333651784e-05 0.8061239405760826 29.32120088610744 15.952969848992645 0 0 0
258 2 1.66755776636468e-05 4.030619609189298 29.32120088610833 18.23196558245081 0 0 0
259 2 1.582466580170305e-05 38.693948398128995 27.92495322486411 20.51095915531053 -1 0 0
260 2 9.278718733594926e-06 3.224495715460061 27.924953224863668 22.78981798462864 0 0 0
261 2 3.761461554298295e-05 1.6122478335308073 27.924953224864897 25.069071240867682 0 0 0
262 2 1.739727601432484e-05 2.418371774882102 29.321200886109093 20.510959155308118 0 0 0
263 2 6.835768974838841e-06 0.8061239405734831 29.321200886107917 22.78981798462806 0 0 0
264 2 4.483595191637213e-05 4.030619608425326 29.32120088610239 25.069071240876706 0 0 0
265 2 4.16522392414076e-05 0 30.717448547350706 0 0 0 0
266 2 1.224811067167958e-05 3.2244957154569156 30.71744854735071 2.27913462687009 0 0 0
267 2 2.27765317085335e-05 1.612247834309423 30.71744854735101 4.557993514689328 0 0 0
268 2 4.14555559862112e-05 2.418371774883195 32.11369620859392 0 0 0 0
269 2 1.183618937174516e-05 0.80612394057373 32.11369620859392 2.2791346268702046 0 0 0
270 2 2.165595775453777e-05 4.030619609192438 32.11369620859416 4.557993514689328 0 0 0
271 2 2.201102166764918e-05 5.501926065707236e-13 30.71744854735144 6.836987087545728 0 0 0
272 2 1.718135079718797e-05 3.2244957154568787 30.71744854735132 9.115982762493523 0 0 0
273 2 1.768034437527738e-05 1.612247834309388 30.717448547351015 11.394978497001746 0 0 0
274 2 2.274956106740333e-05 2.4183717748829547 32.11369620859444 6.836987087546 0 0 0
275 2 1.776684641592585e-05 0.8061239405739962 32.11369620859456 9.115982762493244 0 0 0
276 2 2.011019904243905e-05 4.030619609193606 32.113696208593716 11.394978497002228 0 0 0
277 2 2.233752608770539e-05 38.69394839813005 30.717448547350184 13.673974172996958 -1 0 0
278 2 2.213279149755609e-05 3.224495715455076 30.717448547350816 15.952969848992417 0 0 0
279 2 2.607896456863212e-05 1.6122478343096007 30.71744854735105 18.231965582450858 0 0 0
280 2 2.017314562442057e-05 2.4183717748839273 32.11369620859337 13.673974172996894 0 0 0
281 2 2.201480392979849e-05 0.806123940573727 32.113696208592835 15.952969848993607 0 0 0
282 2 2.084920818134356e-05 4.030619609188902 32.113696208595506 18.231965582450172 0 0 0
283 2 1.800293618400145e-05 2.588901876183468e-12 30.717448547351665 20.51095915530879 0 0 0
284 2 8.669605539857184e-06 3.2244957154568703 30.717448547350887 22.78981798462816 0 0 0
285 2 4.047980914749505e-05 1.6122478335308918 30.717448547353303 25.069071240871242 0 0 0
286 2 2.238865164187753e-05 2.4183717748811078 32.11369620859472 20.510959155307408 0 0 0
287 2 1.131806364793389e-05 0.8061239405747637 32.113696208594625 22.789817984627796 0 0 0
288 2 4.109064908493221e-05 4.030619608414134 32.11369620859312 25.069071240871914 0 0 0
289 2 4.174311663851515e-05 0 33.50994386983714 0 0 0 0
290 2 1.144080439164502e-05 3.2244957154569107 33.50994386983714 2.279134626870296 0 0 0
291 2 2.171634604110351e-05 1.6122478343094244 33.5099438698373 4.557993514689321 0 0 0
292 2 4.17071356474813e-05 2.418371774883195 34.90619153108035 0 0 0 0
293 2 1.08342456790339e-05 0.8061239405737352 34.906191531080346 2.2791346268703903 0 0 0
294 2 2.114697538954657e-05 4.030619609192373 34.90619153108033 4.557993514689352 0 0 0
295 2 2.271453241713128e-05 3.921699513931576e-13 33.50994386983741 6.836987087546067 0 0 0
296 2 1.871854770127412e-05 3.224495715456534 33.50994386983753 9.115982762493388 0 0 0
297 2 1.855585251461095e-05 1.6122478343094293 33.50994386983765 11.394978497000997 0 0 0
298 2 2.325151077228749e-05 2.418371774883056 34.906191531080275 6.836987087546215 0 0 0
299 2 2.001784651323169e-05 0.806123940573992 34.90619153108045 9.115982762493507 0 0 0
300 2 1.979482504847058e-05 4.0306196091925335 34.90619153108051 11.394978497001487 0 0 0
301 2 2.015916414983832e-05 38.693948398129976 33.509943869836746 13.673974172996484 -1 0 0
302 2 2.056651976720114e-05 3.224495715457726 33.50994386983643 15.952969848993165 0 0 0
303 2 2.466430122555902e-05 1.6122478343094147 33.509943869835645 18.231965582452485 0 0 0
304 2 1.869553297919463e-05 2.418371774883527 34.906191531080566 13.673974172995859 0 0 0
305 2 1.833308908966158e-05 0.8061239405731708 34.90619153107989 15.95296984899305 0 0 0
306 2 2.290992001319214e-05 4.030619609192637 34.90619153108044 18.23196558245142 0 0 0
307 2 2.128566420293854e-05 2.340869252255372e-12 33.50994386983771 20.510959155308047 0 0 0
308 2 1.136512691341657e-05 3.2244957154557894 33.50994386983759 22.789817984627945 0 0 0
309 2 4.379041447752363e-05 1.6122478335309933 33.50994386983828 25.069071240875306 0 0 0
310 2 2.227979758079313e-05 2.4183717748828433 34.906191531079564 20.510959155308587 0 0 0
311 2 1.313936734061855e-05 0.8061239405743241 34.906191531080204 22.78981798462803 0 0 0
312 2 4.217001683844146e-05 4.030619608411426 34.90619153108173 25.069071240873278 0 0 0
313 2 4.196598171347932e-05 0 36.30243919232356 0 0 0 0
314 2 1.068209500123055e-05 3.2244957154569054 36.30243919232353 2.279134626870361 0 0 0
315 2 2.04786097877524e-05 1.6122478343094289 36.302439192323405 4.557993514689198 0 0 0
316 2 4.228059486197089e-05 2.418371774883195 37.69868685356677 0 0 0 0
317 2 1.047029837978122e-05 0.8061239405737318 37.698686853566706 2.2791346268703383 0 0 0
318 2 2.047368542103939e-05 4.030619609192392 37.69868685356649 4.557993514689198 0 0 0
319 2 2.303105812041795e-05 2.140564662096046e-13 36.30243919232328 6.836987087546219 0 0 0
320 2 2.040508829169452e-05 3.2244957154567166 36.30243919232353 9.1159827624937 0 0 0
321 2 2.065956694175669e-05 1.612247834309431 36.30243919232395 11.394978497001263 0 0 0
322 2 2.285696513677771e-05 2.418371774883132 37.69868685356633 6.836987087546246 0 0 0
323 2 2.093810477415275e-05 0.8061239405738156 37.698686853566606 9.115982762493962 0 0 0
324 2 2.04470174841806e-05 4.030619609192287 37.69868685356715 11.394978497001523 0 0 0
325 2 1.914182901981143e-05 38.693948398130956 36.30243919232392 13.6739741729958 -1 0 0
326 2 1.790209654345398e-05 3.224495715457663 36.30243919232344 15.952969848992755 0 0 0
327 2 2.066734801230152e-05 1.6122478343093969 36.302439192322986 18.231965582451927 0 0 0
328 2 1.933401026010806e-05 2.4183717748830933 37.698686853567445 13.673974172995578 0 0 0
329 2 1.706444258118417e-05 0.8061239405736842 37.69868685356723 15.952969848992346 0 0 0
330 2 2.172136172727546e-05 4.030619609193456 37.698686853566315 18.23196558245173 0 0 0
331 2 2.118203102722399e-05 38.693948398130814 36.30243919232305 20.510959155308726 -1 0 0
332 2 1.240575739403296e-05 3.2244957154568974 36.30243919232343 22.789817984628105 0 0 0
333 2 4.395357770341224e-05 1.6122478335309158 36.30243919232258 25.06907124087505 0 0 0
334 2 1.99103383262747e-05 2.4183717748835347 37.69868685356636 20.51095915530913 0 0 0
335 2 1.183833274560203e-05 0.8061239405737135 37.69868685356646 22.78981798462821 0 0 0
336 2 4.353241690781273e-05 4.0306196084141686 37.698686853566706 25.069071240874727 0 0 0
337 2 4.268067474523518e-05 0 39.09493451480999 0 0 0 0
338 2 1.075896854741895e-05 3.224495715456923 39.0949345148099 2.2791346268701966 0 0 0
339 2 1.969875397148796e-05 1.6122478343094262 39.09493451480954 4.557993514689194 0 0 0
340 2 4.323018618263008e-05 2.418371774883195 40.49118217605321 0 0 0 0
341 2 1.104322183615239e-05 0.8061239405737148 40.49118217605311 2.2791346268700745 0 0 0