       N       E                     dE             d eps       ncg     rms          rms(c)
DAV:   1     0.387192154189E+03    0.38719E+03   -0.32473E+04 28092   0.169E+03
DAV:   2    -0.290628704617E+02   -0.41626E+03   -0.40614E+03 34452   0.345E+02
DAV:   3    -0.387075029163E+02   -0.96446E+01   -0.95054E+01 31296   0.531E+01
DAV:   4    -0.388143204707E+02   -0.10682E+00   -0.10652E+00 31920   0.556E+00
DAV:   5    -0.388157348428E+02   -0.14144E-02   -0.14140E-02 32568   0.612E-01    0.303E+01
RMM:   6    -0.367756245141E+02    0.20401E+01   -0.45000E+00 28080   0.120E+01    0.160E+01
RMM:   7    -0.365735855681E+02    0.20204E+00   -0.14870E+00 28080   0.653E+00    0.450E+00
RMM:   8    -0.365395945667E+02    0.33991E-01   -0.14616E-01 28086   0.220E+00    0.173E+00
RMM:   9    -0.365373614104E+02    0.22332E-02   -0.57421E-03 28779   0.360E-01    0.489E-02
RMM:  10    -0.365373812145E+02   -0.19804E-04   -0.17209E-04 28253   0.438E-02    0.330E-02
RMM:  11    -0.365373864363E+02   -0.52218E-05   -0.70305E-06 21136   0.115E-02    0.344E-03
RMM:  12    -0.365373860455E+02    0.39077E-06   -0.12119E-06 15272   0.586E-03
   1 F= -.36537386E+02 E0= -.36536709E+02  d E =-.365374E+02
       N       E                     dE             d eps       ncg     rms          rms(c)
DAV:   1    -0.365571028715E+02   -0.19716E-01   -0.41944E-01 29232   0.387E+00    0.677E-01
RMM:   2    -0.365464963063E+02    0.10607E-01   -0.19832E-02 28080   0.801E-01    0.276E-01
RMM:   3    -0.365454573734E+02    0.10389E-02   -0.35710E-03 28278   0.294E-01    0.151E-01
RMM:   4    -0.365454184491E+02    0.38924E-04   -0.28555E-04 28537   0.777E-02    0.163E-02
RMM:   5    -0.365454182456E+02    0.20357E-06   -0.35170E-05 28441   0.261E-02    0.676E-03
RMM:   6    -0.365454177313E+02    0.51429E-06   -0.15704E-06 15604   0.643E-03
   2 F= -.36545418E+02 E0= -.36544762E+02  d E =-.803169E-02
       N       E                     dE             d eps       ncg     rms          rms(c)
DAV:   1    -0.366014476844E+02   -0.56029E-01   -0.17441E+00 28200   0.789E+00    0.137E+00
RMM:   2    -0.365566932678E+02    0.44754E-01   -0.84309E-02 28080   0.165E+00    0.562E-01
RMM:   3    -0.365524462927E+02    0.42470E-02   -0.14688E-02 28301   0.592E-01    0.315E-01
RMM:   4    -0.365523061301E+02    0.14016E-03   -0.11759E-03 28542   0.155E-01    0.359E-02
RMM:   5    -0.365523073349E+02   -0.12048E-05   -0.14562E-04 28495   0.511E-02    0.132E-02
RMM:   6    -0.365523048244E+02    0.25105E-05   -0.66484E-06 24901   0.121E-02    0.556E-03
RMM:   7    -0.365523050775E+02   -0.25307E-06   -0.27941E-06 15741   0.971E-03
   3 F= -.36552305E+02 E0= -.36551764E+02  d E =-.688735E-02
       N       E                     dE             d eps       ncg     rms          rms(c)
DAV:   1    -0.365526584790E+02   -0.35365E-03   -0.11513E-02 30888   0.640E-01    0.112E-01
RMM:   2    -0.365523585638E+02    0.29992E-03   -0.56417E-04 28080   0.134E-01    0.448E-02
RMM:   3    -0.365523283539E+02    0.30210E-04   -0.99447E-05 28277   0.488E-02    0.249E-02
RMM:   4    -0.365523255090E+02    0.28448E-05   -0.82351E-06 26138   0.132E-02    0.271E-03
RMM:   5    -0.365523254590E+02    0.50001E-07   -0.97639E-07 14833   0.488E-03
   4 F= -.36552325E+02 E0= -.36551799E+02  d E =-.203815E-04
