LAMMPS data file via write_data, version 29 Aug 2024, timestep = 7, units = real

3072 atoms
1 atom types

0.0003119005631741047 38.67615137943683 xlo xhi
0.00036015174812098597 44.65937280825188 ylo yhi
0.0002205470031343759 27.348168892996863 zlo zhi

Masses

1 195.08

Atoms # charge

1 1 -2.404113284802667e-06 0.0003119005631759819 0.00036015174812098597 0.0002205470031348966 0 0 0
2 1 9.634572682784559e-07 3.2232985363298816 0.00036015174812098597 2.27921624289373 0 0 0
3 1 9.909273148978048e-07 1.6118051996556735 0.00036015174812098597 4.558211937610971 0 0 0
1735 1 -2.094909237262965e-06 19.338231639999997 22.32986648 6.837207633501565 0 0 0
5 1 9.278277260035828e-07 0.806058568900277 1.3959542972638623 2.2792162428937304 0 0 0
6 1 9.214376969907123e-07 4.029045167085278 1.3959542972638623 4.558211937610971 0 0 0
25 1 -2.41056572385101e-06 0.0003119005631759819 2.7915484427796056 0.0002205470031348966 0 0 0
26 1 9.464095943600981e-07 3.2232985363298816 2.7915484427796056 2.27921624289373 0 0 0
27 1 9.737975542739585e-07 1.6118051996556735 2.7915484427796056 4.558211937610971 0 0 0
28 1 -2.336664897933938e-06 2.417551867992777 4.187142588295348 0.0002205470031348966 0 0 0
29 1 1.036300058043782e-06 0.806058568900277 4.187142588295348 2.27921624289373 0 0 0
30 1 1.026377965861192e-06 4.029045167085277 4.187142588295348 4.558211937610971 0 0 0
49 1 -2.223047919157339e-06 0.0003119005631759819 5.582736733811091 0.0002205470031348966 0 0 0
50 1 1.113279681365376e-06 3.2232985363298816 5.582736733811091 2.27921624289373 0 0 0
51 1 1.145214211482892e-06 1.6118051996556735 5.582736733811091 4.558211937610971 0 0 0
385 1 -2.407685659962244e-06 4.834791835422382 0.00036015174812098597 0.0002205470031348966 0 0 0
387 1 9.357678223270716e-07 6.4462851345148815 0.00036015174812098597 4.558211937610971 0 0 0
389 1 9.159541460371234e-07 5.640538503759483 1.3959542972638623 2.2792162428937304 0 0 0
1711 1 -2.33362054830738e-06 19.338231639999997 19.538678188968518 6.837207633501565 0 0 0
411 1 9.240396980012e-07 6.4462851345148815 2.791548442779606 4.558211937610971 0 0 0
413 1 1.016201533129979e-06 5.640538503759483 4.187142588295348 2.2792162428937304 0 0 0
1687 1 -2.512362186082862e-06 19.338231639999997 16.74748989793703 6.837207633501565 0 0 0
435 1 1.101065758464526e-06 6.4462851345148815 5.582736733811091 4.558211937610971 0 0 0
7 1 -2.400139221835074e-06 0.0003119005631759819 0.00036015174812098597 6.837207633501566 0 0 0
10 1 -2.395229677223942e-06 2.417551867992777 1.3959542972638628 6.837207633501566 0 0 0
31 1 -2.399060437169309e-06 0.0003119005631759819 2.7915484427796056 6.837207633501566 0 0 0
34 1 -2.281209150467589e-06 2.417551867992777 4.187142588295348 6.837207633501566 0 0 0
55 1 -2.204414872607197e-06 0.0003119005631759819 5.582736733811091 6.837207633501566 0 0 0
391 1 -2.408026022089615e-06 4.834791835422382 0.00036015174812098597 6.837207633501566 0 0 0
415 1 -2.410038669846404e-06 4.83479183542238 2.7915484427796056 6.837207633501565 0 0 0
439 1 -2.239544857701725e-06 4.83479183542238 5.582736733811091 6.837207633501566 0 0 0
386 1 1.004607846251393e-06 8.057778471189089 0.00036015174812098597 2.2792162428937304 0 0 0
388 1 -2.394004623929025e-06 7.252031802851985 1.3959542972638628 0.0002205470031348966 0 0 0
390 1 9.325157032044618e-07 8.863525101944484 1.3959542972638623 4.558211937610971 0 0 0
410 1 9.739450628140633e-07 8.057778471189089 2.7915484427796056 2.27921624289373 0 0 0
412 1 -2.305549286284181e-06 7.252031802851985 4.187142588295348 0.0002205470031348966 0 0 0
414 1 1.032375162454691e-06 8.863525101944484 4.187142588295348 4.558211937610971 0 0 0
434 1 1.143002183214004e-06 8.057778471189089 5.582736733811091 2.2792162428937304 0 0 0
769 1 -2.306516912582712e-06 9.669271770281586 0.00036015174812098597 0.0002205470031348966 0 0 0
771 1 1.051261439739826e-06 11.280765069374088 0.00036015174812098597 4.558211937610971 0 0 0
1663 1 -2.424159060786246e-06 19.338231639999997 13.956301606905546 6.837207633501565 0 0 0
773 1 9.763305383325704e-07 10.475018438618692 1.3959542972638628 2.27921624289373 0 0 0
793 1 -2.335729867117275e-06 9.669271770281586 2.7915484427796056 0.0002205470031348966 0 0 0
795 1 9.595968407313804e-07 11.280765069374088 2.7915484427796056 4.558211937610971 0 0 0
1639 1 -2.236344315481587e-06 19.338231639999997 11.16511331587406 6.837207633501565 0 0 0
797 1 1.051176800687115e-06 10.475018438618692 4.187142588295348 2.27921624289373 0 0 0
1615 1 -2.16128885983935e-06 19.338231639999997 8.373925024842574 6.837207633501565 0 0 0
819 1 1.151528600702723e-06 11.280765069374088 5.582736733811091 4.558211937610971 0 0 0
394 1 -2.477166248716911e-06 7.252031802851984 1.3959542972638623 6.837207633501566 0 0 0
418 1 -2.35915679840798e-06 7.252031802851985 4.187142588295348 6.837207633501566 0 0 0
775 1 -2.365725267808316e-06 9.669271770281586 0.00036015174812098597 6.837207633501566 0 0 0
778 1 -2.361732180648779e-06 12.086511737711191 1.3959542972638623 6.837207633501565 0 0 0
799 1 -2.396762489781379e-06 9.669271770281586 2.7915484427796056 6.837207633501566 0 0 0
802 1 -2.283901484864681e-06 12.086511737711191 4.187142588295348 6.837207633501566 0 0 0
823 1 -2.200523907668062e-06 9.669271770281586 5.582736733811091 6.837207633501566 0 0 0
770 1 1.012873176449436e-06 12.892258406048294 0.00036015174812098597 2.27921624289373 0 0 0
774 1 9.094616853916326e-07 13.698005036803693 1.3959542972638623 4.558211937610971 0 0 0
794 1 8.961933554638146e-07 12.892258406048294 2.7915484427796056 2.27921624289373 0 0 0
798 1 9.469077833917927e-07 13.698005036803693 4.187142588295348 4.558211937610971 0 0 0
818 1 1.079946536919341e-06 12.892258406048294 5.582736733811091 2.27921624289373 0 0 0
1153 1 -2.394391568849574e-06 14.503751705140795 0.00036015174812098597 0.0002205470031348966 0 0 0
1154 1 9.367096671791808e-07 17.7267383409075 0.00036015174812098597 2.27921624289373 0 0 0
1155 1 9.454039508124956e-07 16.11524500423329 0.00036015174812098597 4.558211937610971 0 0 0
1156 1 -2.494978760071709e-06 16.920991672570395 1.3959542972638628 0.0002205470031348966 0 0 0
1157 1 8.285428527085581e-07 15.309498373477897 1.3959542972638628 2.279216242893731 0 0 0
1158 1 8.641868874254e-07 18.5324849716629 1.3959542972638623 4.558211937610971 0 0 0
1177 1 -2.471399933236251e-06 14.503751705140795 2.7915484427796056 0.0002205470031348966 0 0 0
1178 1 8.294500138186778e-07 17.7267383409075 2.7915484427796056 2.2792162428937295 0 0 0
1179 1 8.197104474083616e-07 16.11524500423329 2.7915484427796056 4.558211937610971 0 0 0
1180 1 -2.423463853123975e-06 16.920991672570395 4.187142588295348 0.0002205470031348966 0 0 0
1181 1 8.690572601763313e-07 15.309498373477897 4.187142588295348 2.279216242893731 0 0 0
1182 1 9.27226652680524e-07 18.5324849716629 4.187142588295348 4.558211937610971 0 0 0
1591 1 -2.268008175369818e-06 19.338231639999997 5.582736733811091 6.837207633501565 0 0 0
1202 1 1.004973274813803e-06 17.7267383409075 5.582736733811091 2.27921624289373 0 0 0
1203 1 9.816434604001389e-07 16.11524500423329 5.582736733811091 4.558211937610971 0 0 0
1159 1 -2.315999249782874e-06 14.503751705140795 0.00036015174812098597 6.837207633501566 0 0 0
1162 1 -2.456675734313629e-06 16.920991672570395 1.3959542972638623 6.837207633501566 0 0 0
1183 1 -2.404072962515491e-06 14.503751705140795 2.7915484427796056 6.837207633501566 0 0 0
1186 1 -2.398349741895844e-06 16.920991672570395 4.187142588295348 6.837207633501566 0 0 0
1207 1 -2.243352487107941e-06 14.503751705140795 5.582736733811091 6.837207633501566 0 0 0
1567 1 -2.431859080380405e-06 19.338231639999997 2.7915484427796056 6.837207633501565 0 0 0
53 1 1.219104605126864e-06 0.8060585689002772 6.978330879326834 2.27921624289373 0 0 0
54 1 1.186465081313981e-06 4.029045167085277 6.978330879326834 4.558211937610971 0 0 0
73 1 -2.089144091464712e-06 0.0003119005631759819 8.373925024842574 0.0002205470031348966 0 0 0
74 1 1.230674174970692e-06 3.223298536329881 8.373925024842574 2.27921624289373 0 0 0
75 1 1.260296998609189e-06 1.6118051996556735 8.373925024842574 4.558211937610971 0 0 0
1543 1 -2.405597256935343e-06 19.338231639999997 0.00036015174812098597 6.837207633501565 0 0 0
77 1 1.280796519696759e-06 0.8060585689002772 9.769519170358317 2.27921624289373 0 0 0
78 1 1.234985786933984e-06 4.029045167085277 9.769519170358317 4.558211937610971 0 0 0
97 1 -2.119081219942309e-06 0.0003119005631759819 11.16511331587406 0.0002205470031348966 0 0 0
98 1 1.212691148555489e-06 3.2232985363298816 11.16511331587406 2.2792162428937304 0 0 0
99 1 1.242382306289314e-06 1.6118051996556737 11.16511331587406 4.558211937610971 0 0 0
437 1 1.176454261668514e-06 5.640538503759483 6.978330879326834 2.27921624289373 0 0 0
1353 1 1.196465836773852e-06 16.11524500423329 22.32986648 11.395199024109404 0 0 0
459 1 1.23429334858427e-06 6.4462851345148815 8.373925024842574 4.558211937610971 0 0 0
461 1 1.230141741213886e-06 5.640538503759483 9.769519170358317 2.27921624289373 0 0 0
1352 1 1.244628586492824e-06 17.7267383409075 22.32986648 9.116203329392162 0 0 0
483 1 1.230286431876115e-06 6.4462851345148815 11.16511331587406 4.558211937610971 0 0 0
58 1 -2.119529370160633e-06 2.417551867992777 6.978330879326834 6.837207633501566 0 0 0
79 1 -2.092548864192356e-06 0.0003119005631759819 8.373925024842574 6.837207633501566 0 0 0
82 1 -2.084260261499271e-06 2.417551867992777 9.769519170358318 6.837207633501566 0 0 0
103 1 -2.13352549458673e-06 0.0003119005631759819 11.16511331587406 6.837207633501566 0 0 0
463 1 -2.131758640562531e-06 4.83479183542238 8.373925024842574 6.837207633501565 0 0 0
487 1 -2.148738907067904e-06 4.83479183542238 11.16511331587406 6.837207633501566 0 0 0
436 1 -2.171413146775936e-06 7.252031802851985 6.978330879326834 0.0002205470031348966 0 0 0
438 1 1.247509670170011e-06 8.863525101944484 6.978330879326834 4.558211937610971 0 0 0
458 1 1.286618259543904e-06 8.057778471189089 8.373925024842574 2.27921624289373 0 0 0
460 1 -2.125981978358393e-06 7.252031802851985 9.769519170358318 0.0002205470031348966 0 0 0
462 1 1.356912838527957e-06 8.863525101944484 9.769519170358318 4.558211937610971 0 0 0
482 1 1.287552988206431e-06 8.057778471189089 11.16511331587406 2.2792162428937304 0 0 0
968 1 1.324318980193417e-06 12.892258406048294 22.32986648 9.116203329392162 0 0 0
821 1 1.268846068686047e-06 10.475018438618692 6.978330879326834 2.27921624289373 0 0 0
1332 1 1.068394956366125e-06 18.5324849716629 20.934272334484263 11.395199024109404 0 0 0
843 1 1.377739049610027e-06 11.280765069374088 8.373925024842574 4.558211937610971 0 0 0
1331 1 1.179422137169428e-06 15.309498373477897 20.934272334484263 9.116203329392164 0 0 0
845 1 1.392046421938575e-06 10.475018438618692 9.769519170358317 2.27921624289373 0 0 0
1329 1 9.343064499706122e-07 16.11524500423329 19.538678188968518 11.395199024109406 0 0 0
867 1 1.43382718119367e-06 11.280765069374088 11.16511331587406 4.558211937610971 0 0 0
442 1 -2.173962178511624e-06 7.252031802851985 6.978330879326834 6.837207633501566 0 0 0
466 1 -2.108934022193587e-06 7.252031802851985 9.769519170358318 6.837207633501566 0 0 0
826 1 -2.061383962949359e-06 12.086511737711191 6.978330879326834 6.837207633501566 0 0 0
847 1 -2.027097394448341e-06 9.669271770281586 8.373925024842574 6.837207633501566 0 0 0
850 1 -1.937925656066153e-06 12.086511737711191 9.769519170358318 6.837207633501566 0 0 0
871 1 -2.012851777033475e-06 9.669271770281586 11.16511331587406 6.837207633501566 0 0 0
822 1 1.1924840661523e-06 13.698005036803693 6.978330879326834 4.558211937610971 0 0 0
842 1 1.309497413060079e-06 12.892258406048294 8.373925024842574 2.27921624289373 0 0 0
846 1 1.36459096095054e-06 13.698005036803693 9.769519170358318 4.558211937610971 0 0 0
866 1 1.358971667794751e-06 12.892258406048294 11.16511331587406 2.27921624289373 0 0 0
1328 1 1.011909993346716e-06 17.7267383409075 19.538678188968518 9.116203329392162 0 0 0
1205 1 1.111932425697237e-06 15.309498373477897 6.978330879326834 2.279216242893731 0 0 0
1206 1 1.122784126596221e-06 18.5324849716629 6.978330879326834 4.558211937610971 0 0 0
1308 1 8.511050144446863e-07 18.5324849716629 18.143084043452777 11.395199024109404 0 0 0
1226 1 1.192602666559572e-06 17.7267383409075 8.373925024842574 2.27921624289373 0 0 0
1227 1 1.188601048952853e-06 16.11524500423329 8.373925024842574 4.558211937610971 0 0 0
1307 1 9.625180594566296e-07 15.309498373477897 18.143084043452777 9.116203329392164 0 0 0
1229 1 1.260087889275174e-06 15.309498373477897 9.769519170358317 2.279216242893731 0 0 0
1230 1 1.187659092294346e-06 18.5324849716629 9.769519170358318 4.558211937610971 0 0 0
1249 1 -2.110537751558172e-06 14.503751705140795 11.16511331587406 0.0002205470031348966 0 0 0
1250 1 1.176567202609835e-06 17.7267383409075 11.16511331587406 2.27921624289373 0 0 0
1251 1 1.217832505277794e-06 16.11524500423329 11.16511331587406 4.558211937610971 0 0 0
1210 1 -2.221407737146297e-06 16.920991672570395 6.978330879326834 6.837207633501566 0 0 0
1231 1 -2.060765330678949e-06 14.503751705140795 8.373925024842574 6.837207633501566 0 0 0
1234 1 -2.152267939016517e-06 16.920991672570395 9.769519170358318 6.837207633501566 0 0 0
1255 1 -2.041269300721849e-06 14.503751705140795 11.16511331587406 6.837207633501566 0 0 0
948 1 1.134831421167881e-06 13.698005036803693 20.934272334484263 11.395199024109404 0 0 0
101 1 1.181466356380001e-06 0.806058568900277 12.560707461389802 2.27921624289373 0 0 0
102 1 1.160449738780989e-06 4.029045167085277 12.560707461389802 4.558211937610971 0 0 0
121 1 -2.312222477936221e-06 0.0003119005631759819 13.956301606905546 0.0002205470031348966 0 0 0
122 1 1.055159407105377e-06 3.223298536329881 13.956301606905546 2.27921624289373 0 0 0
123 1 1.107452829003652e-06 1.6118051996556735 13.956301606905546 4.558211937610971 0 0 0
124 1 -2.432449219914867e-06 2.417551867992777 15.351895752421287 0.0002205470031348966 0 0 0
125 1 9.684383208211078e-07 0.806058568900277 15.351895752421287 2.27921624289373 0 0 0
126 1 9.989255530529206e-07 4.029045167085277 15.351895752421287 4.558211937610971 0 0 0
485 1 1.14402407168368e-06 5.640538503759483 12.560707461389802 2.27921624289373 0 0 0
944 1 1.127849725827967e-06 12.892258406048294 19.538678188968518 9.116203329392164 0 0 0
507 1 1.089717300103987e-06 6.4462851345148815 13.956301606905546 4.558211937610971 0 0 0
509 1 9.564914678350522e-07 5.640538503759483 15.351895752421287 2.27921624289373 0 0 0
145 1 -2.506427013007628e-06 0.0003119005631759819 16.74748989793703 0.0002205470031348966 0 0 0
146 1 8.886356971382625e-07 3.223298536329881 16.74748989793703 2.27921624289373 0 0 0
147 1 9.656795685042407e-07 1.6118051996556737 16.74748989793703 4.558211937610971 0 0 0
924 1 8.866824352665725e-07 13.698005036803693 18.143084043452777 11.395199024109404 0 0 0
531 1 9.342664787359567e-07 6.4462851345148815 16.74748989793703 4.558211937610971 0 0 0
106 1 -2.15776930968109e-06 2.417551867992777 12.560707461389802 6.837207633501566 0 0 0
127 1 -2.261895222975541e-06 0.0003119005631759819 13.956301606905546 6.837207633501566 0 0 0
130 1 -2.285741486779402e-06 2.417551867992777 15.351895752421287 6.837207633501566 0 0 0
511 1 -2.260379225044185e-06 4.83479183542238 13.956301606905546 6.837207633501565 0 0 0
151 1 -2.361152998016369e-06 0.0003119005631759819 16.74748989793703 6.837207633501566 0 0 0
535 1 -2.378885970516498e-06 4.83479183542238 16.74748989793703 6.837207633501565 0 0 0
484 1 -2.198129067168542e-06 7.252031802851985 12.560707461389802 0.0002205470031348966 0 0 0
486 1 1.286343465627116e-06 8.863525101944484 12.560707461389802 4.558211937610971 0 0 0
506 1 1.127237231848821e-06 8.057778471189089 13.956301606905546 2.27921624289373 0 0 0
508 1 -2.364686070538413e-06 7.252031802851985 15.351895752421287 0.0002205470031348966 0 0 0
510 1 1.088610458686856e-06 8.863525101944484 15.351895752421287 4.558211937610971 0 0 0
969 1 1.303789875665984e-06 11.280765069374088 22.32986648 11.395199024109406 0 0 0
869 1 1.316014536331678e-06 10.475018438618692 12.560707461389802 2.27921624289373 0 0 0
584 1 1.223012185337657e-06 8.057778471189089 22.32986648 9.116203329392164 0 0 0
891 1 1.279350828199688e-06 11.280765069374088 13.956301606905546 4.558211937610971 0 0 0
947 1 1.224234992762419e-06 10.475018438618692 20.934272334484263 9.116203329392164 0 0 0
893 1 1.100393878634975e-06 10.475018438618692 15.351895752421287 2.27921624289373 0 0 0
530 1 9.586163466149267e-07 8.057778471189089 16.74748989793703 2.27921624289373 0 0 0
945 1 1.052429664055721e-06 11.280765069374088 19.538678188968518 11.395199024109406 0 0 0
915 1 1.091640420475271e-06 11.280765069374088 16.74748989793703 4.558211937610971 0 0 0
490 1 -2.179197547413914e-06 7.252031802851985 12.560707461389802 6.837207633501566 0 0 0
514 1 -2.33202100886204e-06 7.252031802851985 15.351895752421287 6.837207633501566 0 0 0
874 1 -2.006694901565687e-06 12.086511737711191 12.560707461389802 6.837207633501566 0 0 0
895 1 -2.152390123945358e-06 9.669271770281586 13.956301606905546 6.837207633501566 0 0 0
898 1 -2.192602995471082e-06 12.086511737711191 15.351895752421287 6.837207633501566 0 0 0
919 1 -2.304082601913005e-06 9.669271770281586 16.74748989793703 6.837207633501566 0 0 0
870 1 1.31342669012352e-06 13.698005036803693 12.560707461389802 4.558211937610971 0 0 0
890 1 1.188542496137479e-06 12.892258406048294 13.956301606905546 2.27921624289373 0 0 0
894 1 1.114221146014671e-06 13.698005036803693 15.351895752421287 4.558211937610971 0 0 0
1252 1 -2.250202960601966e-06 16.920991672570395 12.560707461389802 0.0002205470031348966 0 0 0
1253 1 1.175924094487524e-06 15.309498373477897 12.560707461389802 2.279216242893731 0 0 0
1254 1 1.051465427337472e-06 18.5324849716629 12.560707461389802 4.558211937610971 0 0 0
923 1 1.053414104730532e-06 10.475018438618692 18.143084043452777 9.116203329392164 0 0 0
1274 1 9.810711469535049e-07 17.7267383409075 13.956301606905546 2.27921624289373 0 0 0
1275 1 1.054593908714208e-06 16.11524500423329 13.956301606905546 4.558211937610971 0 0 0
1276 1 -2.450290979297276e-06 16.920991672570395 15.351895752421287 0.0002205470031348966 0 0 0
1277 1 9.675781989862409e-07 15.309498373477897 15.351895752421287 2.279216242893731 0 0 0
1278 1 8.655489409301054e-07 18.5324849716629 15.351895752421287 4.558211937610971 0 0 0
914 1 1.003967234361469e-06 12.892258406048294 16.74748989793703 2.27921624289373 0 0 0
564 1 1.16460886668418e-06 8.863525101944482 20.934272334484263 11.395199024109406 0 0 0
1298 1 8.490976375341575e-07 17.7267383409075 16.74748989793703 2.27921624289373 0 0 0
1299 1 9.205267274686735e-07 16.11524500423329 16.74748989793703 4.558211937610971 0 0 0
1258 1 -2.262386890272694e-06 16.920991672570395 12.560707461389802 6.837207633501566 0 0 0
1279 1 -2.197019624575192e-06 14.503751705140795 13.956301606905546 6.837207633501566 0 0 0
1282 1 -2.436620966612957e-06 16.920991672570395 15.351895752421287 6.837207633501566 0 0 0
1303 1 -2.33790635084663e-06 14.503751705140795 16.74748989793703 6.837207633501566 0 0 0
560 1 1.058685916537072e-06 8.057778471189089 19.538678188968518 9.116203329392164 0 0 0
149 1 8.829831377593633e-07 0.8060585689002768 18.143084043452777 2.2792162428937304 0 0 0
150 1 9.406594347269315e-07 4.029045167085277 18.143084043452777 4.558211937610971 0 0 0
169 1 -2.432539187219307e-06 0.0003119005631759819 19.538678188968518 0.0002205470031348966 0 0 0
170 1 9.687888020970536e-07 3.2232985363298816 19.538678188968518 2.27921624289373 0 0 0
171 1 1.030233033945394e-06 1.6118051996556737 19.538678188968518 4.558211937610971 0 0 0
172 1 -2.285899858865681e-06 2.417551867992777 20.934272334484263 0.0002205470031348966 0 0 0
173 1 1.073956271753496e-06 0.8060585689002769 20.934272334484263 2.2792162428937304 0 0 0
174 1 1.112812490551562e-06 4.029045167085277 20.934272334484263 4.558211937610971 0 0 0
533 1 9.037783713153336e-07 5.640538503759483 18.143084043452777 2.2792162428937304 0 0 0
540 1 9.55241800285056e-07 8.863525101944482 18.143084043452777 11.395199024109406 0 0 0
555 1 9.951293959212237e-07 6.4462851345148815 19.538678188968518 4.558211937610971 0 0 0
557 1 1.129021329510094e-06 5.640538503759483 20.934272334484263 2.2792162428937304 0 0 0
154 1 -2.323148653962659e-06 2.417551867992777 18.143084043452777 6.837207633501566 0 0 0
175 1 -2.277935932819275e-06 0.0003119005631759819 19.538678188968518 6.837207633501566 0 0 0
178 1 -2.185614076326281e-06 2.417551867992777 20.934272334484263 6.837207633501566 0 0 0
559 1 -2.334990298911988e-06 4.83479183542238 19.538678188968518 6.837207633501565 0 0 0
193 1 -2.184960062365238e-06 0.0003119005631759819 22.32986648 0.0002205470031348966 0 0 0
194 1 1.216456426839096e-06 3.2232985363298816 22.32986648 2.27921624289373 0 0 0
195 1 1.235959967593736e-06 1.6118051996556737 22.32986648 4.558211937610971 0 0 0
585 1 1.198680870416469e-06 6.4462851345148815 22.32986648 11.395199024109404 0 0 0
579 1 1.209877764717093e-06 6.4462851345148815 22.32986648 4.558211937610971 0 0 0
199 1 -2.103777720696698e-06 0.0003119005631759819 22.32986648 6.837207633501566 0 0 0
583 1 -2.177388252290469e-06 4.83479183542238 22.32986648 6.837207633501565 0 0 0
532 1 -2.394242464294483e-06 7.252031802851985 18.143084043452777 0.0002205470031348966 0 0 0
534 1 1.003293520311643e-06 8.863525101944482 18.143084043452777 4.558211937610971 0 0 0
554 1 1.05462503464937e-06 8.057778471189089 19.538678188968518 2.27921624289373 0 0 0
556 1 -2.147375300680376e-06 7.252031802851985 20.934272334484263 0.0002205470031348966 0 0 0
558 1 1.162866248995142e-06 8.863525101944484 20.934272334484263 4.558211937610971 0 0 0
201 1 1.184349211244551e-06 1.6118051996556737 22.32986648 11.395199024109406 0 0 0
917 1 1.025335010146344e-06 10.475018438618692 18.143084043452777 2.27921624289373 0 0 0
200 1 1.239433585369099e-06 3.2232985363298816 22.32986648 9.116203329392164 0 0 0
939 1 1.127461757143011e-06 11.280765069374088 19.538678188968518 4.558211937610971 0 0 0
563 1 1.117402956524183e-06 5.640538503759483 20.934272334484263 9.116203329392164 0 0 0
941 1 1.230243309204015e-06 10.475018438618692 20.934272334484263 2.27921624289373 0 0 0
538 1 -2.394726148532977e-06 7.252031802851985 18.143084043452777 6.837207633501566 0 0 0
562 1 -2.266896286143294e-06 7.252031802851985 20.934272334484263 6.837207633501566 0 0 0
922 1 -2.260866735069589e-06 12.086511737711193 18.143084043452777 6.837207633501566 0 0 0
943 1 -2.266082716549656e-06 9.669271770281586 19.538678188968518 6.837207633501566 0 0 0
946 1 -2.128598025667727e-06 12.086511737711191 20.934272334484263 6.837207633501565 0 0 0
578 1 1.326281956016973e-06 8.057778471189089 22.32986648 2.27921624289373 0 0 0
561 1 1.006675411224789e-06 6.4462851345148815 19.538678188968518 11.395199024109404 0 0 0
963 1 1.296651832440043e-06 11.280765069374088 22.32986648 4.558211937610971 0 0 0
967 1 -2.119227281938141e-06 9.669271770281586 22.32986648 6.837207633501566 0 0 0
918 1 1.043938248880549e-06 13.698005036803693 18.143084043452777 4.558211937610971 0 0 0
938 1 1.074920268614998e-06 12.892258406048294 19.538678188968518 2.27921624289373 0 0 0
942 1 1.195177301162309e-06 13.698005036803693 20.93427233448426 4.558211937610971 0 0 0
1300 1 -2.472151185449467e-06 16.920991672570395 18.143084043452777 0.0002205470031348966 0 0 0
1301 1 9.253902933173408e-07 15.309498373477897 18.143084043452777 2.279216242893731 0 0 0
1302 1 8.981073815889085e-07 18.5324849716629 18.143084043452777 4.558211937610971 0 0 0
1321 1 -2.360115550534281e-06 14.503751705140795 19.538678188968518 0.0002205470031348966 0 0 0
1322 1 9.882720415216317e-07 17.7267383409075 19.538678188968518 2.27921624289373 0 0 0
1323 1 1.037525343708379e-06 16.11524500423329 19.538678188968518 4.558211937610971 0 0 0
1324 1 -2.279869252649891e-06 16.920991672570395 20.934272334484263 0.0002205470031348966 0 0 0
1325 1 1.118606354148788e-06 15.309498373477897 20.93427233448426 2.279216242893731 0 0 0
1326 1 1.155080444875667e-06 18.5324849716629 20.93427233448426 4.558211937610971 0 0 0
1306 1 -2.425097473314486e-06 16.920991672570395 18.143084043452777 6.837207633501566 0 0 0
1327 1 -2.252082636218511e-06 14.503751705140795 19.538678188968518 6.837207633501566 0 0 0
1330 1 -2.200487424323938e-06 16.920991672570395 20.934272334484263 6.837207633501566 0 0 0
962 1 1.28348061628758e-06 12.892258406048294 22.32986648 2.27921624289373 0 0 0
1345 1 -2.150596724481701e-06 14.503751705140795 22.32986648 0.0002205470031348966 0 0 0
1346 1 1.204654243705527e-06 17.7267383409075 22.32986648 2.27921624289373 0 0 0
1347 1 1.231852610417139e-06 16.11524500423329 22.32986648 4.558211937610971 0 0 0
1351 1 -2.086188816634305e-06 14.503751705140795 22.32986648 6.837207633501566 0 0 0
8 1 1.024771670188329e-06 3.2232985363298816 0.00036015174812098597 9.116203329392164 0 0 0
9 1 9.542396583600565e-07 1.6118051996556735 0.00036015174812098597 11.395199024109406 0 0 0
11 1 9.430381468292226e-07 0.806058568900277 1.3959542972638628 9.116203329392164 0 0 0
12 1 9.194609320584135e-07 4.029045167085278 1.3959542972638628 11.395199024109406 0 0 0
32 1 1.007298963524861e-06 3.2232985363298816 2.7915484427796056 9.116203329392164 0 0 0
33 1 9.004206449059193e-07 1.6118051996556735 2.7915484427796056 11.395199024109406 0 0 0
35 1 1.077300014785953e-06 0.806058568900277 4.187142588295348 9.116203329392164 0 0 0
36 1 1.009265331454456e-06 4.029045167085278 4.187142588295348 11.395199024109406 0 0 0
56 1 1.189925028927119e-06 3.2232985363298816 5.582736733811091 9.116203329392164 0 0 0
57 1 1.123102121455832e-06 1.6118051996556735 5.582736733811091 11.395199024109406 0 0 0
393 1 9.423084562296125e-07 6.4462851345148815 0.00036015174812098597 11.395199024109404 0 0 0
395 1 9.241638240994887e-07 5.640538503759483 1.3959542972638628 9.116203329392164 0 0 0
417 1 8.946243628057959e-07 6.4462851345148815 2.7915484427796056 11.395199024109406 0 0 0
419 1 1.033620037553529e-06 5.640538503759483 4.187142588295348 9.116203329392164 0 0 0
441 1 1.070516118598097e-06 6.4462851345148815 5.582736733811091 11.395199024109406 0 0 0
392 1 9.43916052868754e-07 8.057778471189089 0.00036015174812098597 9.116203329392164 0 0 0
396 1 8.723349163991534e-07 8.863525101944484 1.3959542972638628 11.395199024109406 0 0 0
416 1 9.343299392644555e-07 8.057778471189089 2.7915484427796056 9.116203329392164 0 0 0
420 1 9.797806934455644e-07 8.863525101944484 4.187142588295348 11.395199024109406 0 0 0
440 1 1.120875372309649e-06 8.057778471189089 5.582736733811091 9.116203329392164 0 0 0
777 1 9.70466815748694e-07 11.280765069374088 0.00036015174812098597 11.395199024109406 0 0 0
779 1 9.755621563287131e-07 10.475018438618692 1.3959542972638628 9.116203329392164 0 0 0
801 1 9.567033846594186e-07 11.280765069374088 2.7915484427796056 11.395199024109406 0 0 0
803 1 1.090635802211692e-06 10.475018438618692 4.187142588295348 9.116203329392164 0 0 0
825 1 1.155327557594843e-06 11.280765069374088 5.582736733811091 11.395199024109406 0 0 0
776 1 1.083773622116702e-06 12.892258406048294 0.00036015174812098597 9.116203329392162 0 0 0
780 1 9.445645770336797e-07 13.698005036803693 1.3959542972638628 11.395199024109406 0 0 0
800 1 1.055997448998203e-06 12.892258406048294 2.7915484427796056 9.116203329392162 0 0 0
804 1 1.067742716354125e-06 13.698005036803693 4.187142588295348 11.395199024109404 0 0 0
824 1 1.236385080066738e-06 12.892258406048294 5.582736733811091 9.116203329392162 0 0 0
1160 1 9.829467082778098e-07 17.7267383409075 0.00036015174812098597 9.116203329392162 0 0 0
1161 1 9.342886663557537e-07 16.11524500423329 0.00036015174812098597 11.395199024109404 0 0 0
1163 1 9.997112039375478e-07 15.309498373477897 1.3959542972638628 9.116203329392164 0 0 0
1164 1 8.772220688318955e-07 18.5324849716629 1.3959542972638628 11.395199024109406 0 0 0
1184 1 9.6991616683334e-07 17.7267383409075 2.7915484427796056 9.116203329392162 0 0 0
1185 1 9.343177777010325e-07 16.11524500423329 2.7915484427796056 11.395199024109406 0 0 0
1187 1 1.088205815048815e-06 15.309498373477897 4.187142588295348 9.116203329392164 0 0 0
1188 1 9.954099828915486e-07 18.5324849716629 4.187142588295348 11.395199024109406 0 0 0
1208 1 1.128805676778311e-06 17.7267383409075 5.582736733811091 9.116203329392162 0 0 0
1209 1 1.1241587566449e-06 16.11524500423329 5.582736733811091 11.395199024109406 0 0 0
59 1 1.280080245337489e-06 0.806058568900277 6.978330879326834 9.116203329392164 0 0 0
60 1 1.21041132571803e-06 4.029045167085278 6.978330879326834 11.395199024109406 0 0 0
80 1 1.307699411715046e-06 3.223298536329881 8.373925024842574 9.116203329392164 0 0 0
81 1 1.300091926365043e-06 1.6118051996556735 8.373925024842574 11.395199024109406 0 0 0
83 1 1.318452649876067e-06 0.8060585689002772 9.769519170358317 9.116203329392164 0 0 0
84 1 1.268120822926766e-06 4.029045167085278 9.769519170358318 11.395199024109406 0 0 0
104 1 1.275640817893775e-06 3.223298536329881 11.16511331587406 9.116203329392164 0 0 0
105 1 1.261433314372895e-06 1.6118051996556737 11.16511331587406 11.395199024109406 0 0 0
443 1 1.202920648646355e-06 5.640538503759483 6.978330879326834 9.116203329392164 0 0 0
465 1 1.202310975702281e-06 6.4462851345148815 8.373925024842574 11.395199024109406 0 0 0
467 1 1.242108758695015e-06 5.640538503759483 9.769519170358318 9.116203329392164 0 0 0
489 1 1.169487905496036e-06 6.4462851345148815 11.16511331587406 11.395199024109406 0 0 0
444 1 1.171181473705318e-06 8.863525101944484 6.978330879326834 11.395199024109406 0 0 0
464 1 1.247528585719693e-06 8.057778471189089 8.373925024842574 9.116203329392164 0 0 0
468 1 1.217631119036777e-06 8.863525101944484 9.769519170358317 11.395199024109406 0 0 0
488 1 1.221951127922116e-06 8.057778471189089 11.16511331587406 9.116203329392164 0 0 0
827 1 1.287306646419184e-06 10.475018438618692 6.978330879326834 9.116203329392164 0 0 0
849 1 1.289752097365093e-06 11.280765069374088 8.373925024842574 11.395199024109406 0 0 0
851 1 1.346223391929247e-06 10.475018438618692 9.769519170358318 9.116203329392164 0 0 0