       N       E                     dE             d eps       ncg     rms          rms(c)
DAV:   1     0.432807231800E+04    0.43281E+04   -0.26951E+05  3920   0.127E+03
DAV:   2    -0.647021815039E+02   -0.43928E+04   -0.40620E+04  4620   0.280E+02
DAV:   3    -0.393735379493E+03   -0.32903E+03   -0.29753E+03  4662   0.703E+01
DAV:   4    -0.409803397860E+03   -0.16068E+02   -0.14960E+02  5068   0.142E+01
DAV:   5    -0.410250936229E+03   -0.44754E+00   -0.44474E+00  4844   0.249E+00    0.923E+01
RMM:   6    -0.411885345388E+03   -0.16344E+01   -0.82248E+01  3937   0.141E+01    0.758E+01
RMM:   7    -0.469365403781E+03   -0.57480E+02   -0.19996E+02  3935   0.142E+01    0.729E+01
RMM:   8    -0.662911857707E+03   -0.19355E+03   -0.24781E+02  4000   0.148E+01    0.113E+02
RMM:   9    -0.425134009573E+03    0.23778E+03   -0.98721E+01  3927   0.107E+01    0.439E+01
RMM:  10    -0.403919305305E+03    0.21215E+02   -0.39887E+01  3929   0.776E+00    0.406E+01
RMM:  11    -0.389216466539E+03    0.14703E+02   -0.24587E+01  3936   0.585E+00    0.280E+01
RMM:  12    -0.383053546285E+03    0.61629E+01   -0.49360E+00  3928   0.287E+00    0.141E+01
RMM:  13    -0.382026776858E+03    0.10268E+01   -0.23603E+00  3938   0.189E+00    0.108E+01
RMM:  14    -0.381376139045E+03    0.65064E+00   -0.69706E-01  3945   0.102E+00    0.631E+00
RMM:  15    -0.381185183813E+03    0.19096E+00   -0.26330E-01  3946   0.646E-01    0.508E+00
RMM:  16    -0.381326089600E+03   -0.14091E+00   -0.31770E-01  3943   0.746E-01    0.713E+00
RMM:  17    -0.381192041702E+03    0.13405E+00   -0.18323E-01  3945   0.567E-01    0.518E+00
RMM:  18    -0.381011408294E+03    0.18063E+00   -0.12781E-01  3942   0.467E-01    0.199E+00
RMM:  19    -0.380994755394E+03    0.16653E-01   -0.41588E-02  3942   0.268E-01    0.122E+00
RMM:  20    -0.380986131305E+03    0.86241E-02   -0.49741E-03  3949   0.925E-02    0.854E-01
RMM:  21    -0.380982954340E+03    0.31770E-02   -0.16585E-03  3946   0.516E-02    0.717E-01
RMM:  22    -0.380981377958E+03    0.15764E-02   -0.25576E-03  3942   0.629E-02    0.627E-01
RMM:  23    -0.380980811888E+03    0.56607E-03   -0.27875E-03  3942   0.668E-02    0.436E-01
RMM:  24    -0.380980294353E+03    0.51754E-03   -0.10204E-03  3945   0.403E-02    0.225E-01
RMM:  25    -0.380980438557E+03   -0.14420E-03   -0.36307E-04  3947   0.237E-02    0.179E-01
RMM:  26    -0.380980770281E+03   -0.33172E-03   -0.23268E-04  3942   0.185E-02    0.131E-01
RMM:  27    -0.380980903180E+03   -0.13290E-03   -0.93162E-05  3988   0.114E-02    0.903E-02
RMM:  28    -0.380981183116E+03   -0.27994E-03   -0.10342E-04  3942   0.120E-02    0.567E-02
RMM:  29    -0.380981564725E+03   -0.38161E-03   -0.10428E-04  3940   0.119E-02    0.460E-02
RMM:  30    -0.380981728961E+03   -0.16424E-03   -0.30179E-05  3935   0.629E-03    0.383E-02
RMM:  31    -0.380981895157E+03   -0.16620E-03   -0.18606E-05  3899   0.496E-03    0.274E-02
RMM:  32    -0.380981998401E+03   -0.10324E-03   -0.72081E-06  3129   0.298E-03    0.204E-02
RMM:  33    -0.380982216987E+03   -0.21859E-03   -0.17087E-05  3665   0.423E-03    0.255E-02
RMM:  34    -0.380982334449E+03   -0.11746E-03   -0.94489E-06  3225   0.298E-03    0.192E-02
RMM:  35    -0.380982413517E+03   -0.79069E-04   -0.52594E-06  2860   0.216E-03    0.782E-03
RMM:  36    -0.380982470236E+03   -0.56718E-04   -0.28640E-06  2575   0.162E-03    0.895E-03
RMM:  37    -0.380982561798E+03   -0.91563E-04   -0.58389E-06  2914   0.205E-03    0.694E-03
RMM:  38    -0.380982588665E+03   -0.26867E-04   -0.18849E-06  2426   0.119E-03    0.618E-03
RMM:  39    -0.380982604490E+03   -0.15825E-04   -0.77020E-07  2038   0.801E-04    0.203E-03
RMM:  40    -0.380982611133E+03   -0.66434E-05   -0.32363E-07  1427   0.569E-04    0.572E-03
RMM:  41    -0.380982624088E+03   -0.12955E-04   -0.42342E-07  2130   0.665E-04    0.382E-03
RMM:  42    -0.380982633470E+03   -0.93811E-05   -0.29576E-07  1289   0.515E-04    0.161E-03
RMM:  43    -0.380982637339E+03   -0.38698E-05   -0.30177E-07  1810   0.555E-04    0.631E-03
RMM:  44    -0.380982638822E+03   -0.14826E-05   -0.10109E-07   906   0.362E-04    0.374E-03
RMM:  45    -0.380982639343E+03   -0.52118E-06   -0.24156E-08   563   0.321E-04
   1 F= -.41697640E+03 E0= -.41666465E+03  d E =-.416976E+03
       N       E                     dE             d eps       ncg     rms          rms(c)
DAV:   1    -0.380986364666E+03   -0.37258E-02   -0.52168E-01  4018   0.126E+00    0.259E-01
RMM:   2    -0.380988330334E+03   -0.19657E-02   -0.14393E-02  3945   0.154E-01    0.385E-01
RMM:   3    -0.380987620536E+03    0.70980E-03   -0.20405E-03  3953   0.555E-02    0.376E-01
RMM:   4    -0.380986897247E+03    0.72329E-03   -0.37394E-04  3961   0.229E-02    0.224E-01
RMM:   5    -0.380986852206E+03    0.45041E-04   -0.38981E-04  3942   0.239E-02    0.204E-01
RMM:   6    -0.380986808971E+03    0.43235E-04   -0.25720E-04  3945   0.203E-02    0.183E-01
RMM:   7    -0.380986654004E+03    0.15497E-03   -0.15098E-04  3942   0.160E-02    0.850E-02
RMM:   8    -0.380986624778E+03    0.29226E-04   -0.58313E-05  3941   0.975E-03    0.423E-02
RMM:   9    -0.380986614230E+03    0.10548E-04   -0.13598E-05  3908   0.495E-03    0.213E-02
RMM:  10    -0.380986612072E+03    0.21582E-05   -0.31545E-06  2478   0.248E-03    0.133E-02
RMM:  11    -0.380986611707E+03    0.36451E-06   -0.87677E-07  2067   0.132E-03
   2 F= -.41697916E+03 E0= -.41666738E+03  d E =-.276651E-02
       N       E                     dE             d eps       ncg     rms          rms(c)
DAV:   1    -0.380985897040E+03    0.71503E-03   -0.11724E-02  3990   0.148E-01    0.193E-02
RMM:   2    -0.380985948009E+03   -0.50969E-04   -0.19028E-04  3954   0.229E-02    0.714E-02
RMM:   3    -0.380985922139E+03    0.25869E-04   -0.18592E-05  3969   0.564E-03    0.364E-02
RMM:   4    -0.380985916473E+03    0.56657E-05   -0.48141E-06  3037   0.285E-03    0.249E-02
RMM:   5    -0.380985915275E+03    0.11985E-05   -0.33366E-06  2498   0.256E-03    0.228E-02
RMM:   6    -0.380985914749E+03    0.52586E-06   -0.34132E-06  2545   0.257E-03
   3 F= -.41697895E+03 E0= -.41666712E+03  d E =0.218265E-03
       N       E                     dE             d eps       ncg     rms          rms(c)
DAV:   1    -0.380990110645E+03   -0.41954E-02   -0.76722E-01  3948   0.148E+00    0.357E-01
RMM:   2    -0.380993511600E+03   -0.34010E-02   -0.28800E-02  3955   0.219E-01    0.469E-01
RMM:   3    -0.380994560031E+03   -0.10484E-02   -0.35507E-03  3969   0.739E-02    0.647E-01
RMM:   4    -0.380991802693E+03    0.27573E-02   -0.90803E-04  3959   0.348E-02    0.304E-01
RMM:   5    -0.380992154881E+03   -0.35219E-03   -0.97049E-04  3942   0.381E-02    0.378E-01
RMM:   6    -0.380991593195E+03    0.56169E-03   -0.61325E-04  3941   0.314E-02    0.222E-01
RMM:   7    -0.380991348704E+03    0.24449E-03   -0.40507E-04  3943   0.255E-02    0.127E-01
RMM:   8    -0.380991293132E+03    0.55572E-04   -0.12703E-04  3942   0.143E-02    0.741E-02
RMM:   9    -0.380991256502E+03    0.36630E-04   -0.41353E-05  3933   0.854E-03    0.358E-02
RMM:  10    -0.380991248432E+03    0.80705E-05   -0.80573E-06  3851   0.369E-03    0.141E-02
RMM:  11    -0.380991247830E+03    0.60138E-06   -0.22853E-06  2178   0.204E-03
   4 F= -.41698085E+03 E0= -.41666913E+03  d E =-.190753E-02
       N       E                     dE             d eps       ncg     rms          rms(c)
DAV:   1    -0.381036588715E+03   -0.45340E-01   -0.19911E+01  3920   0.629E+00    0.163E+00
RMM:   2    -0.381106760535E+03   -0.70172E-01   -0.44690E-01  3957   0.104E+00    0.296E+00
RMM:   3    -0.381079333793E+03    0.27427E-01   -0.24902E-02  4007   0.222E-01    0.206E+00
RMM:   4    -0.381153020998E+03   -0.73687E-01   -0.22643E-02  3948   0.168E-01    0.329E+00
RMM:   5    -0.381121741923E+03    0.31279E-01   -0.55365E-02  3942   0.273E-01    0.312E+00
RMM:   6    -0.381074296219E+03    0.47446E-01   -0.25170E-02  3945   0.201E-01    0.134E+00
RMM:   7    -0.381065762602E+03    0.85336E-02   -0.12084E-02  3943   0.139E-01    0.668E-01
RMM:   8    -0.381064875571E+03    0.88703E-03   -0.37102E-03  3942   0.789E-02    0.489E-01
RMM:   9    -0.381063514588E+03    0.13610E-02   -0.11299E-03  3943   0.438E-02    0.249E-01
RMM:  10    -0.381063205971E+03    0.30862E-03   -0.32615E-04  3947   0.227E-02    0.158E-01
RMM:  11    -0.381063049115E+03    0.15686E-03   -0.26139E-04  3943   0.207E-02    0.102E-01
RMM:  12    -0.381063004795E+03    0.44320E-04   -0.13781E-04  3942   0.142E-02    0.764E-02
RMM:  13    -0.381062997502E+03    0.72929E-05   -0.52661E-05  3943   0.951E-03    0.655E-02
RMM:  14    -0.381062971512E+03    0.25989E-04   -0.22265E-05  3935   0.611E-03    0.233E-02
RMM:  15    -0.381062972801E+03   -0.12882E-05   -0.64592E-06  3650   0.342E-03    0.110E-02
RMM:  16    -0.381062975174E+03   -0.23734E-05   -0.12658E-06  2181   0.165E-03    0.841E-03
RMM:  17    -0.381062978736E+03   -0.35624E-05   -0.70254E-07  2131   0.121E-03    0.564E-03
RMM:  18    -0.381062983069E+03   -0.43332E-05   -0.36664E-07  2125   0.853E-04    0.434E-03
RMM:  19    -0.381062985815E+03   -0.27458E-05   -0.18248E-07  2027   0.577E-04    0.361E-03
RMM:  20    -0.381062989864E+03   -0.40487E-05   -0.15841E-07  1744   0.516E-04    0.322E-03
RMM:  21    -0.381062994162E+03   -0.42978E-05   -0.13940E-07  1425   0.470E-04    0.189E-03
RMM:  22    -0.381062996820E+03   -0.26584E-05   -0.86828E-08  1094   0.396E-04    0.164E-03
RMM:  23    -0.381063002345E+03   -0.55244E-05   -0.23568E-07  1496   0.483E-04    0.134E-03
RMM:  24    -0.381063004941E+03   -0.25959E-05   -0.12744E-07  1103   0.387E-04    0.913E-04
RMM:  25    -0.381063008589E+03   -0.36487E-05   -0.22322E-07  1409   0.443E-04    0.751E-04
RMM:  26    -0.381063010405E+03   -0.18161E-05   -0.96840E-08   911   0.371E-04    0.657E-04
RMM:  27    -0.381063011631E+03   -0.12258E-05   -0.10770E-07  1011   0.367E-04    0.547E-04
RMM:  28    -0.381063012373E+03   -0.74195E-06   -0.42623E-08   656   0.318E-04
   5 F= -.41700320E+03 E0= -.41669187E+03  d E =-.223423E-01
       N       E                     dE             d eps       ncg     rms          rms(c)
DAV:   1    -0.381065556888E+03   -0.25453E-02   -0.52347E-01  3920   0.125E+00    0.284E-01
RMM:   2    -0.381067834809E+03   -0.22779E-02   -0.18406E-02  3943   0.173E-01    0.392E-01
RMM:   3    -0.381066788527E+03    0.10463E-02   -0.23028E-03  3948   0.594E-02    0.340E-01
RMM:   4    -0.381066474651E+03    0.31388E-03   -0.37013E-04  3965   0.229E-02    0.254E-01
RMM:   5    -0.381066536250E+03   -0.61599E-04   -0.48114E-04  3942   0.258E-02    0.266E-01
RMM:   6    -0.381066284848E+03    0.25140E-03   -0.32186E-04  3944   0.225E-02    0.201E-01
RMM:   7    -0.381066107658E+03    0.17719E-03   -0.19551E-04  3943   0.181E-02    0.106E-01
RMM:   8    -0.381066062451E+03    0.45207E-04   -0.73559E-05  3941   0.109E-02    0.525E-02
RMM:   9    -0.381066043407E+03    0.19044E-04   -0.21423E-05  3924   0.617E-03    0.243E-02
RMM:  10    -0.381066040175E+03    0.32317E-05   -0.41532E-06  2895   0.276E-03    0.137E-02
RMM:  11    -0.381066039666E+03    0.50944E-06   -0.10365E-06  2078   0.141E-03
   6 F= -.41700554E+03 E0= -.41669414E+03  d E =-.234359E-02
       N       E                     dE             d eps       ncg     rms          rms(c)
DAV:   1    -0.381063701416E+03    0.23388E-02   -0.42198E-02  3948   0.320E-01    0.117E-01
RMM:   2    -0.381064187076E+03   -0.48566E-03   -0.14817E-03  3949   0.526E-02    0.272E-01
RMM:   3    -0.381063858454E+03    0.32862E-03   -0.68063E-05  3978   0.111E-02    0.169E-01
RMM:   4    -0.381064122588E+03   -0.26413E-03   -0.74388E-05  3937   0.103E-02    0.229E-01
RMM:   5    -0.381064008382E+03    0.11421E-03   -0.17203E-04  3940   0.161E-02    0.201E-01
RMM:   6    -0.381063836644E+03    0.17174E-03   -0.11390E-04  3937   0.134E-02    0.104E-01
RMM:   7    -0.381063784631E+03    0.52013E-04   -0.53108E-05  3923   0.907E-03    0.493E-02
RMM:   8    -0.381063777996E+03    0.66346E-05   -0.17525E-05  3912   0.536E-03    0.275E-02
RMM:   9    -0.381063773609E+03    0.43872E-05   -0.45609E-06  2968   0.287E-03    0.117E-02
RMM:  10    -0.381063772975E+03    0.63336E-06   -0.94735E-07  2133   0.139E-03
   7 F= -.41700290E+03 E0= -.41669153E+03  d E =0.264149E-02
       N       E                     dE             d eps       ncg     rms          rms(c)
DAV:   1    -0.381069600779E+03   -0.58272E-02   -0.78023E-01  3920   0.149E+00    0.289E-01
RMM:   2    -0.381075476546E+03   -0.58758E-02   -0.26677E-02  3947   0.212E-01    0.682E-01
RMM:   3    -0.381079374835E+03   -0.38983E-02   -0.38947E-03  3963   0.714E-02    0.995E-01
RMM:   4    -0.381071049439E+03    0.83254E-02   -0.20871E-03  3939   0.555E-02    0.231E-01
RMM:   5    -0.381070793651E+03    0.25579E-03   -0.50827E-04  3943   0.290E-02    0.146E-01
RMM:   6    -0.381070855511E+03   -0.61859E-04   -0.26398E-04  3945   0.208E-02    0.168E-01
RMM:   7    -0.381070739568E+03    0.11594E-03   -0.14191E-04  3945   0.157E-02    0.934E-02
RMM:   8    -0.381070722684E+03    0.16884E-04   -0.88970E-05  3940   0.121E-02    0.611E-02
RMM:   9    -0.381070697641E+03    0.25044E-04   -0.29055E-05  3931   0.728E-03    0.273E-02
RMM:  10    -0.381070692798E+03    0.48422E-05   -0.51450E-06  3307   0.309E-03    0.128E-02
RMM:  11    -0.381070692800E+03   -0.12515E-08   -0.12447E-06  2108   0.154E-03
   8 F= -.41700628E+03 E0= -.41669496E+03  d E =-.338027E-02
       N       E                     dE             d eps       ncg     rms          rms(c)
DAV:   1    -0.381139373141E+03   -0.68680E-01   -0.50172E+01  3920   0.969E+00    0.125E+00
RMM:   2    -0.381425682782E+03   -0.28631E+00   -0.82311E-01  3930   0.150E+00    0.499E+00
RMM:   3    -0.381216093364E+03    0.20959E+00   -0.64285E-02  3981   0.345E-01    0.113E+00
RMM:   4    -0.381225266193E+03   -0.91728E-02   -0.28727E-02  3941   0.218E-01    0.178E+00
RMM:   5    -0.381207986317E+03    0.17280E-01   -0.12657E-02  3946   0.144E-01    0.105E+00
RMM:   6    -0.381206989922E+03    0.99640E-03   -0.99995E-03  3947   0.128E-01    0.950E-01
RMM:   7    -0.381206397622E+03    0.59230E-03   -0.84427E-03  3942   0.116E-01    0.833E-01
RMM:   8    -0.381202444471E+03    0.39532E-02   -0.38138E-03  3946   0.799E-02    0.456E-01
RMM:   9    -0.381201322400E+03    0.11221E-02   -0.91537E-04  3948   0.397E-02    0.269E-01
RMM:  10    -0.381200958155E+03    0.36424E-03   -0.32737E-04  3940   0.233E-02    0.186E-01
RMM:  11    -0.381200698928E+03    0.25923E-03   -0.22099E-04  3944   0.179E-02    0.932E-02
RMM:  12    -0.381200655739E+03    0.43189E-04   -0.75783E-05  3949   0.109E-02    0.597E-02
RMM:  13    -0.381200653173E+03    0.25655E-05   -0.32656E-05  3936   0.729E-03    0.539E-02
RMM:  14    -0.381200644499E+03    0.86744E-05   -0.28852E-05  3930   0.696E-03    0.254E-02
RMM:  15    -0.381200643143E+03    0.13559E-05   -0.91046E-06  3902   0.401E-03    0.120E-02
RMM:  16    -0.381200644375E+03   -0.12318E-05   -0.16941E-06  2204   0.184E-03    0.832E-03
RMM:  17    -0.381200645656E+03   -0.12810E-05   -0.63403E-07  2129   0.120E-03    0.380E-03
RMM:  18    -0.381200647138E+03   -0.14822E-05   -0.24694E-07  2084   0.680E-04    0.318E-03
RMM:  19    -0.381200648982E+03   -0.18446E-05   -0.13799E-07  1741   0.513E-04    0.224E-03
RMM:  20    -0.381200650964E+03   -0.19817E-05   -0.91473E-08  1285   0.442E-04    0.120E-03
RMM:  21    -0.381200652231E+03   -0.12672E-05   -0.45423E-08   848   0.371E-04    0.609E-04
RMM:  22    -0.381200653660E+03   -0.14288E-05   -0.70177E-08  1008   0.379E-04    0.583E-04
RMM:  23    -0.381200655556E+03   -0.18957E-05   -0.10457E-07  1144   0.396E-04    0.448E-04
RMM:  24    -0.381200656475E+03   -0.91964E-06   -0.61974E-08   830   0.342E-04
   9 F= -.41704911E+03 E0= -.41673818E+03  d E =-.428271E-01
       N       E                     dE             d eps       ncg     rms          rms(c)
DAV:   1    -0.381201061100E+03   -0.40554E-03   -0.52293E-01  3920   0.126E+00    0.281E-01
RMM:   2    -0.381203963069E+03   -0.29020E-02   -0.18647E-02  3945   0.174E-01    0.453E-01
RMM:   3    -0.381205791524E+03   -0.18285E-02   -0.31406E-03  3952   0.663E-02    0.716E-01
RMM:   4    -0.381201670625E+03    0.41209E-02   -0.67203E-04  3957   0.315E-02    0.192E-01
RMM:   5    -0.381201709233E+03   -0.38609E-04   -0.32903E-04  3942   0.229E-02    0.176E-01
RMM:   6    -0.381201684898E+03    0.24336E-04   -0.24784E-04  3945   0.200E-02    0.160E-01
RMM:   7    -0.381201587461E+03    0.97436E-04   -0.13708E-04  3944   0.152E-02    0.109E-01
RMM:   8    -0.381201546214E+03    0.41247E-04   -0.62526E-05  3938   0.999E-03    0.544E-02
RMM:   9    -0.381201527668E+03    0.18547E-04   -0.21854E-05  3926   0.621E-03    0.237E-02
RMM:  10    -0.381201524245E+03    0.34229E-05   -0.44095E-06  2997   0.286E-03    0.121E-02
RMM:  11    -0.381201524183E+03    0.61278E-07   -0.96941E-07  2098   0.136E-03
  10 F= -.41704942E+03 E0= -.41673843E+03  d E =-.312296E-03
       N       E                     dE             d eps       ncg     rms          rms(c)
DAV:   1    -0.381201056566E+03    0.46768E-03   -0.63537E-03  4032   0.132E-01    0.320E-02
RMM:   2    -0.381201130921E+03   -0.74356E-04   -0.20844E-04  3952   0.193E-02    0.929E-02
RMM:   3    -0.381201075829E+03    0.55092E-04   -0.12388E-05  3903   0.454E-03    0.410E-02
RMM:   4    -0.381201095437E+03   -0.19608E-04   -0.10153E-05  3877   0.395E-03    0.588E-02
RMM:   5    -0.381201085520E+03    0.99170E-05   -0.11837E-05  3900   0.429E-03    0.508E-02
RMM:   6    -0.381201076151E+03    0.93690E-05   -0.86454E-06  3865   0.373E-03    0.313E-02
RMM:   7    -0.381201071248E+03    0.49033E-05   -0.36275E-06  2596   0.251E-03    0.133E-02
RMM:   8    -0.381201070848E+03    0.39920E-06   -0.14872E-06  2161   0.178E-03
  11 F= -.41704897E+03 E0= -.41673800E+03  d E =0.450902E-03
       N       E                     dE             d eps       ncg     rms          rms(c)
DAV:   1    -0.381204008135E+03   -0.29369E-02   -0.64297E-01  3920   0.137E+00    0.270E-01
RMM:   2    -0.381209343095E+03   -0.53350E-02   -0.23825E-02  3949   0.195E-01    0.710E-01
RMM:   3    -0.381209133685E+03    0.20941E-03   -0.25169E-03  3971   0.604E-02    0.691E-01
RMM:   4    -0.381205926204E+03    0.32075E-02   -0.13925E-03  3947   0.446E-02    0.319E-01
RMM:   5    -0.381205416866E+03    0.50934E-03   -0.78228E-04  3941   0.352E-02    0.263E-01
RMM:   6    -0.381205189563E+03    0.22730E-03   -0.25267E-04  3947   0.208E-02    0.167E-01
RMM:   7    -0.381205099219E+03    0.90344E-04   -0.12214E-04  3943   0.146E-02    0.108E-01
RMM:   8    -0.381205087544E+03    0.11675E-04   -0.97252E-05  3940   0.128E-02    0.746E-02
RMM:   9    -0.381205056549E+03    0.30996E-04   -0.39418E-05  3930   0.820E-03    0.386E-02
RMM:  10    -0.381205048928E+03    0.76207E-05   -0.84747E-06  3866   0.381E-03    0.155E-02
RMM:  11    -0.381205048662E+03    0.26643E-06   -0.18093E-06  2192   0.186E-03
  12 F= -.41705258E+03 E0= -.41674167E+03  d E =-.361452E-02
       N       E                     dE             d eps       ncg     rms          rms(c)
DAV:   1    -0.381211043147E+03   -0.59942E-02   -0.21523E+00  3920   0.229E+00    0.682E-01
RMM:   2    -0.381221854616E+03   -0.10811E-01   -0.65417E-02  3954   0.359E-01    0.121E+00
RMM:   3    -0.381217398461E+03    0.44562E-02   -0.33499E-03  3999   0.777E-02    0.756E-01
RMM:   4    -0.381233422284E+03   -0.16024E-01   -0.52206E-03  3952   0.812E-02    0.151E+00
RMM:   5    -0.381221685895E+03    0.11736E-01   -0.62451E-03  3942   0.936E-02    0.108E+00
RMM:   6    -0.381217359863E+03    0.43260E-02   -0.36461E-03  3946   0.764E-02    0.640E-01
RMM:   7    -0.381215448091E+03    0.19118E-02   -0.18015E-03  3942   0.531E-02    0.275E-01
RMM:   8    -0.381215334201E+03    0.11389E-03   -0.62133E-04  3945   0.323E-02    0.189E-01
RMM:   9    -0.381215105397E+03    0.22880E-03   -0.17496E-04  3946   0.173E-02    0.592E-02
RMM:  10    -0.381215091072E+03    0.14325E-04   -0.29244E-05  3948   0.674E-03    0.359E-02
RMM:  11    -0.381215095997E+03   -0.49257E-05   -0.25227E-05  3923   0.624E-03    0.284E-02
RMM:  12    -0.381215100298E+03   -0.43007E-05   -0.17907E-05  3921   0.560E-03    0.163E-02
RMM:  13    -0.381215104788E+03   -0.44896E-05   -0.56125E-06  3359   0.314E-03    0.143E-02
RMM:  14    -0.381215107875E+03   -0.30871E-05   -0.17718E-06  2223   0.191E-03    0.105E-02
RMM:  15    -0.381215109243E+03   -0.13681E-05   -0.55309E-07  2118   0.110E-03    0.433E-03
RMM:  16    -0.381215111244E+03   -0.20015E-05   -0.22592E-07  2088   0.660E-04    0.268E-03
RMM:  17    -0.381215115334E+03   -0.40893E-05   -0.19724E-07  1795   0.540E-04    0.238E-03
RMM:  18    -0.381215118390E+03   -0.30563E-05   -0.11197E-07  1151   0.430E-04    0.203E-03
RMM:  19    -0.381215120184E+03   -0.17939E-05   -0.85846E-08  1054   0.402E-04    0.168E-03
RMM:  20    -0.381215122857E+03   -0.26735E-05   -0.16462E-07  1457   0.449E-04    0.143E-03
RMM:  21    -0.381215125667E+03   -0.28100E-05   -0.17612E-07  1400   0.431E-04    0.691E-04
RMM:  22    -0.381215127263E+03   -0.15958E-05   -0.81057E-08   868   0.362E-04    0.372E-04
RMM:  23    -0.381215129903E+03   -0.26402E-05   -0.31151E-07  1745   0.512E-04    0.513E-04
RMM:  24    -0.381215131066E+03   -0.11626E-05   -0.10458E-07   929   0.347E-04    0.513E-04
RMM:  25    -0.381215131927E+03   -0.86114E-06   -0.84840E-08   905   0.363E-04
  13 F= -.41705907E+03 E0= -.41674820E+03  d E =-.648475E-02
       N       E                     dE             d eps       ncg     rms          rms(c)
DAV:   1    -0.381215600725E+03   -0.46966E-03   -0.52165E-01  3920   0.127E+00    0.274E-01
RMM:   2    -0.381218763894E+03   -0.31632E-02   -0.18842E-02  3947   0.174E-01    0.478E-01
RMM:   3    -0.381221541321E+03   -0.27774E-02   -0.32720E-03  3958   0.669E-02    0.800E-01
RMM:   4    -0.381216239596E+03    0.53017E-02   -0.86411E-04  3949   0.353E-02    0.186E-01
RMM:   5    -0.381216208614E+03    0.30982E-04   -0.32962E-04  3942   0.230E-02    0.150E-01
RMM:   6    -0.381216206931E+03    0.16826E-05   -0.21748E-04  3944   0.189E-02    0.137E-01
RMM:   7    -0.381216140976E+03    0.65955E-04   -0.11968E-04  3947   0.143E-02    0.990E-02
RMM:   8    -0.381216112205E+03    0.28770E-04   -0.55475E-05  3941   0.942E-03    0.562E-02
RMM:   9    -0.381216093124E+03    0.19081E-04   -0.21124E-05  3924   0.610E-03    0.235E-02
RMM:  10    -0.381216089764E+03    0.33602E-05   -0.42511E-06  2922   0.282E-03    0.115E-02
RMM:  11    -0.381216089688E+03    0.75852E-07   -0.98350E-07  2090   0.137E-03
  14 F= -.41705951E+03 E0= -.41674859E+03  d E =-.441511E-03
       N       E                     dE             d eps       ncg     rms          rms(c)
DAV:   1    -0.381215626862E+03    0.46290E-03   -0.85943E-03  4060   0.143E-01    0.431E-02
RMM:   2    -0.381215681558E+03   -0.54696E-04   -0.26127E-04  3952   0.229E-02    0.903E-02
RMM:   3    -0.381215652445E+03    0.29113E-04   -0.12744E-05  3885   0.492E-03    0.543E-02
RMM:   4    -0.381215726964E+03   -0.74519E-04   -0.21414E-05  3893   0.510E-03    0.106E-01
RMM:   5    -0.381215675768E+03    0.51196E-04   -0.27251E-05  3918   0.633E-03    0.776E-02
RMM:   6    -0.381215650700E+03    0.25068E-04   -0.17630E-05  3896   0.526E-03    0.369E-02
RMM:   7    -0.381215644748E+03    0.59524E-05   -0.77179E-06  3644   0.349E-03    0.177E-02
RMM:   8    -0.381215643952E+03    0.79552E-06   -0.22242E-06  2252   0.208E-03
  15 F= -.41705929E+03 E0= -.41674836E+03  d E =0.218440E-03
       N       E                     dE             d eps       ncg     rms          rms(c)
DAV:   1    -0.381220222333E+03   -0.45776E-02   -0.64977E-01  3920   0.136E+00    0.293E-01
RMM:   2    -0.381223536539E+03   -0.33142E-02   -0.23951E-02  3954   0.200E-01    0.443E-01
RMM:   3    -0.381225608977E+03   -0.20724E-02   -0.34749E-03  3973   0.707E-02    0.727E-01
RMM:   4    -0.381221368483E+03    0.42405E-02   -0.65276E-04  3961   0.314E-02    0.199E-01
RMM:   5    -0.381221513005E+03   -0.14452E-03   -0.38123E-04  3942   0.247E-02    0.211E-01
RMM:   6    -0.381221437350E+03    0.75655E-04   -0.32923E-04  3947   0.228E-02    0.200E-01
RMM:   7    -0.381221288401E+03    0.14895E-03   -0.17823E-04  3946   0.172E-02    0.125E-01
RMM:   8    -0.381221231683E+03    0.56718E-04   -0.84584E-05  3942   0.117E-02    0.607E-02
RMM:   9    -0.381221205682E+03    0.26001E-04   -0.34923E-05  3933   0.787E-03    0.244E-02
RMM:  10    -0.381221201934E+03    0.37481E-05   -0.59099E-06  3489   0.321E-03    0.115E-02
RMM:  11    -0.381221202719E+03   -0.78514E-06   -0.16922E-06  2177   0.176E-03
  16 F= -.41706090E+03 E0= -.41675014E+03  d E =-.161106E-02
       N       E                     dE             d eps       ncg     rms          rms(c)
DAV:   1    -0.381255388752E+03   -0.34187E-01   -0.14334E+01  3920   0.523E+00    0.696E-01
RMM:   2    -0.381280273631E+03   -0.24885E-01   -0.21951E-01  3955   0.793E-01    0.934E-01
RMM:   3    -0.381276103542E+03    0.41701E-02   -0.16960E-02  4025   0.182E-01    0.522E-01
RMM:   4    -0.381291740884E+03   -0.15637E-01   -0.80791E-03  3965   0.109E-01    0.146E+00
RMM:   5    -0.381277042737E+03    0.14698E-01   -0.38516E-03  3961   0.698E-02    0.687E-01
RMM:   6    -0.381274559141E+03    0.24836E-02   -0.26208E-03  3947   0.636E-02    0.429E-01
RMM:   7    -0.381274561346E+03   -0.22043E-05   -0.18865E-03  3944   0.549E-02    0.407E-01
RMM:   8    -0.381273684077E+03    0.87727E-03   -0.10021E-03  3942   0.418E-02    0.185E-01
RMM:   9    -0.381273510981E+03    0.17310E-03   -0.25124E-04  3946   0.205E-02    0.117E-01
RMM:  10    -0.381273433195E+03    0.77785E-04   -0.78012E-05  3943   0.111E-02    0.700E-02
RMM:  11    -0.381273391226E+03    0.41969E-04   -0.48799E-05  3937   0.932E-03    0.358E-02
RMM:  12    -0.381273389151E+03    0.20752E-05   -0.15675E-05  3925   0.496E-03    0.308E-02
RMM:  13    -0.381273389594E+03   -0.44296E-06   -0.85591E-06  3899   0.372E-03
  17 F= -.41706986E+03 E0= -.41676002E+03  d E =-.896039E-02
       N       E                     dE             d eps       ncg     rms          rms(c)
DAV:   1    -0.381273794945E+03   -0.40579E-03   -0.52193E-01  3920   0.127E+00    0.276E-01
RMM:   2    -0.381276480132E+03   -0.26852E-02   -0.18660E-02  3949   0.174E-01    0.430E-01
RMM:   3    -0.381275058762E+03    0.14214E-02   -0.25439E-03  3961   0.618E-02    0.336E-01
RMM:   4    -0.381274874480E+03    0.18428E-03   -0.40899E-04  3958   0.244E-02    0.279E-01
RMM:   5    -0.381274584953E+03    0.28953E-03   -0.39096E-04  3942   0.234E-02    0.202E-01
RMM:   6    -0.381274422322E+03    0.16263E-03   -0.24123E-04  3946   0.199E-02    0.141E-01
RMM:   7    -0.381274350457E+03    0.71865E-04   -0.13048E-04  3944   0.148E-02    0.997E-02
RMM:   8    -0.381274323483E+03    0.26974E-04   -0.54676E-05  3942   0.938E-03    0.573E-02
RMM:   9    -0.381274303448E+03    0.20035E-04   -0.21639E-05  3922   0.619E-03    0.259E-02
RMM:  10    -0.381274299664E+03    0.37842E-05   -0.41276E-06  2873   0.277E-03    0.133E-02
RMM:  11    -0.381274299478E+03    0.18629E-06   -0.10888E-06  2081   0.144E-03
  18 F= -.41707033E+03 E0= -.41676043E+03  d E =-.468123E-03
       N       E                     dE             d eps       ncg     rms          rms(c)
DAV:   1    -0.381274366186E+03   -0.66521E-04   -0.22514E-03  4060   0.730E-02    0.133E-02
RMM:   2    -0.381274405050E+03   -0.38865E-04   -0.60783E-05  3951   0.113E-02    0.636E-02
RMM:   3    -0.381274372918E+03    0.32132E-04   -0.75523E-06  3661   0.338E-03    0.206E-02
RMM:   4    -0.381274372110E+03    0.80892E-06   -0.30205E-06  2457   0.236E-03
  19 F= -.41707028E+03 E0= -.41676040E+03  d E =0.454704E-04
       N       E                     dE             d eps       ncg     rms          rms(c)
DAV:   1    -0.381278050119E+03   -0.36772E-02   -0.63944E-01  3920   0.135E+00    0.279E-01
RMM:   2    -0.381282273468E+03   -0.42233E-02   -0.22696E-02  3954   0.196E-01    0.542E-01
RMM:   3    -0.381288888685E+03   -0.66152E-02   -0.40027E-03  3974   0.721E-02    0.107E+00
RMM:   4    -0.381279217400E+03    0.96713E-02   -0.15863E-03  3939   0.483E-02    0.211E-01
RMM:   5    -0.381279099693E+03    0.11771E-03   -0.34410E-04  3942   0.239E-02    0.152E-01
RMM:   6    -0.381279175579E+03   -0.75887E-04   -0.25895E-04  3943   0.203E-02    0.187E-01
RMM:   7    -0.381279032124E+03    0.14346E-03   -0.17026E-04  3942   0.169E-02    0.105E-01
RMM:   8    -0.381278996912E+03    0.35211E-04   -0.79290E-05  3942   0.114E-02    0.553E-02
RMM:   9    -0.381278976639E+03    0.20274E-04   -0.29011E-05  3933   0.722E-03    0.257E-02
RMM:  10    -0.381278972840E+03    0.37983E-05   -0.50732E-06  3215   0.301E-03    0.143E-02
RMM:  11    -0.381278972560E+03    0.28073E-06   -0.14471E-06  2137   0.165E-03
  20 F= -.41707063E+03 E0= -.41676087E+03  d E =-.350460E-03
       N       E                     dE             d eps       ncg     rms          rms(c)
DAV:   1    -0.381313481886E+03   -0.34509E-01   -0.14272E+01  3920   0.523E+00    0.636E-01
RMM:   2    -0.381344612160E+03   -0.31130E-01   -0.21761E-01  3965   0.792E-01    0.120E+00
RMM:   3    -0.381354269737E+03   -0.96576E-02   -0.19038E-02  4005   0.184E-01    0.156E+00
RMM:   4    -0.381337154224E+03    0.17116E-01   -0.82803E-03  3959   0.110E-01    0.822E-01
RMM:   5    -0.381332323642E+03    0.48306E-02   -0.36768E-03  3952   0.792E-02    0.421E-01
RMM:   6    -0.381331944834E+03    0.37881E-03   -0.17944E-03  3950   0.557E-02    0.345E-01
RMM:   7    -0.381332496155E+03   -0.55132E-03   -0.19666E-03  3946   0.572E-02    0.422E-01
RMM:   8    -0.381331649625E+03    0.84653E-03   -0.99295E-04  3938   0.413E-02    0.230E-01
RMM:   9    -0.381331373132E+03    0.27649E-03   -0.25074E-04  3953   0.206E-02    0.140E-01
RMM:  10    -0.381331256404E+03    0.11673E-03   -0.82701E-05  3937   0.113E-02    0.807E-02
RMM:  11    -0.381331200468E+03    0.55936E-04   -0.52812E-05  3935   0.951E-03    0.346E-02
RMM:  12    -0.381331197507E+03    0.29610E-05   -0.15894E-05  3924   0.496E-03    0.268E-02
RMM:  13    -0.381331197194E+03    0.31309E-06   -0.11813E-05  3916   0.445E-03    0.251E-02
RMM:  14    -0.381331192755E+03    0.44396E-05   -0.30847E-06  2502   0.242E-03    0.104E-02
RMM:  15    -0.381331192365E+03    0.38993E-06   -0.95363E-07  2076   0.145E-03
  21 F= -.41707388E+03 E0= -.41676486E+03  d E =-.324233E-02
       N       E                     dE             d eps       ncg     rms          rms(c)
DAV:   1    -0.381331732222E+03   -0.53947E-03   -0.52178E-01  3920   0.127E+00    0.276E-01
RMM:   2    -0.381334669410E+03   -0.29372E-02   -0.18858E-02  3949   0.174E-01    0.453E-01
RMM:   3    -0.381336460860E+03   -0.17915E-02   -0.30829E-03  3960   0.657E-02    0.711E-01
RMM:   4    -0.381332367797E+03    0.40931E-02   -0.68643E-04  3954   0.318E-02    0.187E-01
RMM:   5    -0.381332362963E+03    0.48335E-05   -0.32000E-04  3942   0.226E-02    0.159E-01
RMM:   6    -0.381332360878E+03    0.20851E-05   -0.22923E-04  3945   0.194E-02    0.147E-01
RMM:   7    -0.381332283564E+03    0.77314E-04   -0.12748E-04  3947   0.147E-02    0.103E-01
RMM:   8    -0.381332247995E+03    0.35569E-04   -0.59306E-05  3941   0.974E-03    0.550E-02
RMM:   9    -0.381332229066E+03    0.18929E-04   -0.21804E-05  3927   0.621E-03    0.238E-02
RMM:  10    -0.381332225733E+03    0.33332E-05   -0.40929E-06  2854   0.276E-03    0.123E-02
RMM:  11    -0.381332225585E+03    0.14830E-06   -0.10487E-06  2093   0.141E-03
  22 F= -.41707439E+03 E0= -.41676533E+03  d E =-.514569E-03
       N       E                     dE             d eps       ncg     rms          rms(c)
DAV:   1    -0.381332118730E+03    0.10700E-03   -0.30541E-03  4060   0.836E-02    0.120E-02
RMM:   2    -0.381332127475E+03   -0.87451E-05   -0.60203E-05  3946   0.121E-02    0.226E-02
RMM:   3    -0.381332128299E+03   -0.82354E-06   -0.51883E-06  3115   0.314E-03
  23 F= -.41707440E+03 E0= -.41676535E+03  d E =-.135741E-04
       N       E                     dE             d eps       ncg     rms          rms(c)
DAV:   1    -0.381336027362E+03   -0.38999E-02   -0.66743E-01  3920   0.138E+00    0.282E-01
RMM:   2    -0.381339419662E+03   -0.33923E-02   -0.23063E-02  3954   0.198E-01    0.466E-01
RMM:   3    -0.381339706140E+03   -0.28648E-03   -0.30778E-03  3973   0.675E-02    0.571E-01
RMM:   4    -0.381338033152E+03    0.16730E-02   -0.95527E-04  3959   0.365E-02    0.362E-01
RMM:   5    -0.381337091643E+03    0.94151E-03   -0.44066E-04  3943   0.263E-02    0.125E-01
RMM:   6    -0.381337180812E+03   -0.89168E-04   -0.26179E-04  3946   0.206E-02    0.168E-01
RMM:   7    -0.381337059533E+03    0.12128E-03   -0.14231E-04  3947   0.155E-02    0.929E-02
RMM:   8    -0.381337037853E+03    0.21680E-04   -0.81320E-05  3942   0.115E-02    0.588E-02
RMM:   9    -0.381337013887E+03    0.23966E-04   -0.27392E-05  3932   0.704E-03    0.230E-02
RMM:  10    -0.381337010272E+03    0.36141E-05   -0.46759E-06  3111   0.294E-03    0.932E-03
RMM:  11    -0.381337010776E+03   -0.50355E-06   -0.15081E-06  2138   0.167E-03
  24 F= -.41707625E+03 E0= -.41676722E+03  d E =-.184218E-02
       N       E                     dE             d eps       ncg     rms          rms(c)
DAV:   1    -0.381359500987E+03   -0.22491E-01   -0.71044E+00  3920   0.371E+00    0.615E-01
RMM:   2    -0.381415345833E+03   -0.55845E-01   -0.13561E-01  3951   0.591E-01    0.238E+00
RMM:   3    -0.381372847797E+03    0.42498E-01   -0.95480E-03  3998   0.132E-01    0.765E-01
RMM:   4    -0.381378863188E+03   -0.60154E-02   -0.50992E-03  3950   0.924E-02    0.111E+00
RMM:   5    -0.381373176348E+03    0.56868E-02   -0.46444E-03  3946   0.844E-02    0.808E-01
RMM:   6    -0.381370808965E+03    0.23674E-02   -0.24927E-03  3950   0.622E-02    0.525E-01
RMM:   7    -0.381370130144E+03    0.67882E-03   -0.16504E-03  3944   0.511E-02    0.371E-01
RMM:   8    -0.381369272603E+03    0.85754E-03   -0.65789E-04  3943   0.330E-02    0.158E-01
RMM:   9    -0.381369114159E+03    0.15844E-03   -0.14603E-04  3947   0.156E-02    0.909E-02
RMM:  10    -0.381369071779E+03    0.42379E-04   -0.68505E-05  3943   0.102E-02    0.669E-02
RMM:  11    -0.381369041800E+03    0.29979E-04   -0.47570E-05  3931   0.833E-03    0.369E-02
RMM:  12    -0.381369036954E+03    0.48455E-05   -0.17830E-05  3917   0.537E-03    0.255E-02
RMM:  13    -0.381369038107E+03   -0.11527E-05   -0.77405E-06  3846   0.361E-03    0.230E-02
RMM:  14    -0.381369037094E+03    0.10135E-05   -0.39763E-06  2758   0.268E-03    0.144E-02
RMM:  15    -0.381369036647E+03    0.44701E-06   -0.17752E-06  2167   0.198E-03
  25 F= -.41708382E+03 E0= -.41677470E+03  d E =-.757443E-02
       N       E                     dE             d eps       ncg     rms          rms(c)
DAV:   1    -0.381369456135E+03   -0.41904E-03   -0.52154E-01  3920   0.126E+00    0.278E-01
RMM:   2    -0.381372641124E+03   -0.31850E-02   -0.19281E-02  3948   0.175E-01    0.473E-01
RMM:   3    -0.381375982612E+03   -0.33415E-02   -0.33997E-03  3960   0.678E-02    0.837E-01
RMM:   4    -0.381370137963E+03    0.58446E-02   -0.88745E-04  3950   0.359E-02    0.187E-01
RMM:   5    -0.381370124031E+03    0.13932E-04   -0.33011E-04  3942   0.230E-02    0.157E-01
RMM:   6    -0.381370107421E+03    0.16610E-04   -0.22612E-04  3946   0.193E-02    0.136E-01
RMM:   7    -0.381370044338E+03    0.63083E-04   -0.12470E-04  3946   0.146E-02    0.998E-02
RMM:   8    -0.381370016827E+03    0.27511E-04   -0.55637E-05  3939   0.942E-03    0.597E-02
RMM:   9    -0.381369995159E+03    0.21668E-04   -0.22500E-05  3922   0.628E-03    0.244E-02
RMM:  10    -0.381369991697E+03    0.34621E-05   -0.43169E-06  2954   0.281E-03    0.122E-02
RMM:  11    -0.381369991550E+03    0.14720E-06   -0.10985E-06  2104   0.144E-03
  26 F= -.41708435E+03 E0= -.41677518E+03  d E =-.528804E-03
       N       E                     dE             d eps       ncg     rms          rms(c)
DAV:   1    -0.381369814642E+03    0.17705E-03   -0.56077E-03  4060   0.104E-01    0.202E-02
RMM:   2    -0.381369834557E+03   -0.19914E-04   -0.11396E-04  3948   0.170E-02    0.465E-02
RMM:   3    -0.381369824202E+03    0.10355E-04   -0.78451E-06  3718   0.395E-03    0.207E-02
RMM:   4    -0.381369844086E+03   -0.19884E-04   -0.60443E-06  3326   0.288E-03    0.517E-02
RMM:   5    -0.381369830358E+03    0.13728E-04   -0.67572E-06  3503   0.302E-03    0.348E-02
RMM:   6    -0.381369824231E+03    0.61269E-05   -0.41116E-06  2837   0.265E-03    0.160E-02
RMM:   7    -0.381369823569E+03    0.66216E-06   -0.17400E-06  2186   0.188E-03
  27 F= -.41708422E+03 E0= -.41677505E+03  d E =0.132566E-03
       N       E                     dE             d eps       ncg     rms          rms(c)
DAV:   1    -0.381371660187E+03   -0.18360E-02   -0.69697E-01  3920   0.140E+00    0.331E-01
RMM:   2    -0.381375352356E+03   -0.36922E-02   -0.25922E-02  3956   0.209E-01    0.498E-01
RMM:   3    -0.381380826346E+03   -0.54740E-02   -0.41561E-03  3974   0.762E-02    0.975E-01
RMM:   4    -0.381372810598E+03    0.80157E-02   -0.12103E-03  3952   0.413E-02    0.209E-01
RMM:   5    -0.381373071074E+03   -0.26048E-03   -0.66612E-04  3942   0.326E-02    0.252E-01
RMM:   6    -0.381372963901E+03    0.10717E-03   -0.51572E-04  3947   0.288E-02    0.223E-01
RMM:   7    -0.381372761505E+03    0.20240E-03   -0.29918E-04  3943   0.220E-02    0.140E-01
RMM:   8    -0.381372689584E+03    0.71921E-04   -0.11279E-04  3942   0.135E-02    0.727E-02
RMM:   9    -0.381372655038E+03    0.34546E-04   -0.43312E-05  3933   0.865E-03    0.364E-02
RMM:  10    -0.381372646918E+03    0.81200E-05   -0.90546E-06  3895   0.390E-03    0.153E-02
RMM:  11    -0.381372646241E+03    0.67747E-06   -0.25166E-06  2287   0.212E-03
  28 F= -.41708457E+03 E0= -.41677545E+03  d E =-.354200E-03
       N       E                     dE             d eps       ncg     rms          rms(c)
DAV:   1    -0.381377261797E+03   -0.46149E-02   -0.36271E-01  3920   0.834E-01    0.178E-01
RMM:   2    -0.381378616890E+03   -0.13551E-02   -0.71801E-03  3947   0.136E-01    0.391E-01
RMM:   3    -0.381378021116E+03    0.59577E-03   -0.42445E-04  4070   0.288E-02    0.271E-01
RMM:   4    -0.381378385781E+03   -0.36466E-03   -0.17545E-04  3974   0.157E-02    0.307E-01
RMM:   5    -0.381378246961E+03    0.13882E-03   -0.51760E-04  3943   0.273E-02    0.305E-01
RMM:   6    -0.381377889662E+03    0.35730E-03   -0.27937E-04  3947   0.212E-02    0.168E-01
RMM:   7    -0.381377812707E+03    0.76956E-04   -0.19111E-04  3942   0.174E-02    0.103E-01
RMM:   8    -0.381377759943E+03    0.52763E-04   -0.64192E-05  3938   0.105E-02    0.481E-02
RMM:   9    -0.381377744853E+03    0.15090E-04   -0.14629E-05  3921   0.493E-03    0.249E-02
RMM:  10    -0.381377741495E+03    0.33576E-05   -0.38664E-06  2697   0.256E-03    0.173E-02
RMM:  11    -0.381377739297E+03    0.21985E-05   -0.76122E-06  3851   0.357E-03    0.134E-02
RMM:  12    -0.381377738455E+03    0.84159E-06   -0.27730E-06  2263   0.228E-03
  29 F= -.41708502E+03 E0= -.41677593E+03  d E =-.452112E-03
       N       E                     dE             d eps       ncg     rms          rms(c)
DAV:   1    -0.381378088900E+03   -0.34960E-03   -0.52243E-01  3920   0.126E+00    0.278E-01
RMM:   2    -0.381380871967E+03   -0.27831E-02   -0.18957E-02  3948   0.174E-01    0.441E-01
RMM:   3    -0.381380022885E+03    0.84908E-03   -0.27299E-03  3959   0.636E-02    0.439E-01
RMM:   4    -0.381378945425E+03    0.10775E-02   -0.44341E-04  3960   0.257E-02    0.238E-01
RMM:   5    -0.381378829643E+03    0.11578E-03   -0.36617E-04  3943   0.233E-02    0.194E-01
RMM:   6    -0.381378772204E+03    0.57439E-04   -0.24655E-04  3945   0.199E-02    0.176E-01
RMM:   7    -0.381378644439E+03    0.12777E-03   -0.14655E-04  3945   0.158E-02    0.101E-01
RMM:   8    -0.381378606553E+03    0.37885E-04   -0.68990E-05  3942   0.106E-02    0.516E-02
RMM:   9    -0.381378590064E+03    0.16489E-04   -0.21772E-05  3928   0.623E-03    0.250E-02
RMM:  10    -0.381378586695E+03    0.33687E-05   -0.41086E-06  2871   0.276E-03    0.139E-02
RMM:  11    -0.381378586407E+03    0.28882E-06   -0.10705E-06  2087   0.143E-03
  30 F= -.41708545E+03 E0= -.41677631E+03  d E =-.429066E-03
       N       E                     dE             d eps       ncg     rms          rms(c)
DAV:   1    -0.381378688858E+03   -0.10216E-03   -0.38095E-03  3976   0.938E-02    0.250E-02
RMM:   2    -0.381378741517E+03   -0.52660E-04   -0.11919E-04  3956   0.156E-02    0.795E-02
RMM:   3    -0.381378701591E+03    0.39927E-04   -0.93937E-06  3843   0.397E-03    0.378E-02
RMM:   4    -0.381378705887E+03   -0.42960E-05   -0.47673E-06  3074   0.282E-03    0.397E-02
RMM:   5    -0.381378706064E+03   -0.17702E-06   -0.78866E-06  3874   0.363E-03
  31 F= -.41708546E+03 E0= -.41677635E+03  d E =-.299842E-05
       N       E                     dE             d eps       ncg     rms          rms(c)
DAV:   1    -0.381379288386E+03   -0.58250E-03   -0.69003E-01  3920   0.141E+00    0.305E-01
RMM:   2    -0.381383845713E+03   -0.45573E-02   -0.25468E-02  3954   0.205E-01    0.563E-01
RMM:   3    -0.381390876408E+03   -0.70307E-02   -0.45704E-03  3972   0.776E-02    0.111E+00
RMM:   4    -0.381380521728E+03    0.10355E-01   -0.15824E-03  3942   0.482E-02    0.231E-01
RMM:   5    -0.381380420372E+03    0.10136E-03   -0.38201E-04  3941   0.251E-02    0.167E-01
RMM:   6    -0.381380487319E+03   -0.66946E-04   -0.31925E-04  3947   0.227E-02    0.196E-01
RMM:   7    -0.381380346930E+03    0.14039E-03   -0.18472E-04  3947   0.175E-02    0.127E-01
RMM:   8    -0.381380288383E+03    0.58546E-04   -0.95366E-05  3939   0.123E-02    0.674E-02
RMM:   9    -0.381380261061E+03    0.27322E-04   -0.36085E-05  3934   0.797E-03    0.294E-02
RMM:  10    -0.381380256436E+03    0.46249E-05   -0.72722E-06  3772   0.353E-03    0.157E-02
RMM:  11    -0.381380256065E+03    0.37086E-06   -0.20186E-06  2205   0.191E-03
  32 F= -.41708529E+03 E0= -.41677622E+03  d E =0.169023E-03
       N       E                     dE             d eps       ncg     rms          rms(c)
DAV:   1    -0.381381951377E+03   -0.16949E-02   -0.82805E-02  3920   0.415E-01    0.661E-02
RMM:   2    -0.381382192501E+03   -0.24112E-03   -0.16642E-03  3951   0.643E-02    0.142E-01
RMM:   3    -0.381382123284E+03    0.69217E-04   -0.10238E-04  4023   0.140E-02    0.975E-02
RMM:   4    -0.381382163607E+03   -0.40322E-04   -0.42405E-05  3956   0.767E-03    0.107E-01
RMM:   5    -0.381382138150E+03    0.25457E-04   -0.62771E-05  3939   0.962E-03    0.110E-01
RMM:   6    -0.381382090756E+03    0.47394E-04   -0.32961E-05  3925   0.736E-03    0.597E-02
RMM:   7    -0.381382084242E+03    0.65131E-05   -0.24797E-05  3922   0.628E-03    0.412E-02
RMM:   8    -0.381382076257E+03    0.79853E-05   -0.11528E-05  3902   0.450E-03    0.194E-02
RMM:   9    -0.381382074025E+03    0.22318E-05   -0.22864E-06  2256   0.209E-03    0.857E-03
RMM:  10    -0.381382073707E+03    0.31808E-06   -0.66331E-07  2051   0.115E-03
  33 F= -.41708534E+03 E0= -.41677630E+03  d E =-.531558E-04
       N       E                     dE             d eps       ncg     rms          rms(c)
DAV:   1    -0.381382415481E+03   -0.34146E-03   -0.52236E-01  3920   0.127E+00    0.275E-01
RMM:   2    -0.381385341544E+03   -0.29261E-02   -0.18713E-02  3947   0.173E-01    0.453E-01
RMM:   3    -0.381386926789E+03   -0.15852E-02   -0.30500E-03  3958   0.654E-02    0.693E-01
RMM:   4    -0.381383058937E+03    0.38679E-02   -0.66401E-04  3954   0.313E-02    0.187E-01
RMM:   5    -0.381383056309E+03    0.26273E-05   -0.31969E-04  3942   0.226E-02    0.162E-01
RMM:   6    -0.381383053781E+03    0.25278E-05   -0.22787E-04  3945   0.193E-02    0.154E-01
RMM:   7    -0.381382966289E+03    0.87493E-04   -0.12749E-04  3947   0.147E-02    0.102E-01
RMM:   8    -0.381382931664E+03    0.34625E-04   -0.60764E-05  3941   0.986E-03    0.542E-02
RMM:   9    -0.381382913496E+03    0.18167E-04   -0.21795E-05  3925   0.620E-03    0.250E-02
RMM:  10    -0.381382909896E+03    0.35996E-05   -0.42022E-06  2905   0.279E-03    0.130E-02
RMM:  11    -0.381382909617E+03    0.27965E-06   -0.10697E-06  2094   0.143E-03
  34 F= -.41708571E+03 E0= -.41677662E+03  d E =-.372132E-03
       N       E                     dE             d eps       ncg     rms          rms(c)
DAV:   1    -0.381382863443E+03    0.46453E-04   -0.37333E-03  4060   0.859E-02    0.126E-02
RMM:   2    -0.381382880848E+03   -0.17405E-04   -0.65464E-05  3947   0.133E-02    0.399E-02
RMM:   3    -0.381382878043E+03    0.28051E-05   -0.86088E-06  3839   0.372E-03    0.340E-02
RMM:   4    -0.381382869200E+03    0.88429E-05   -0.20980E-06  2315   0.189E-03    0.112E-02
RMM:   5    -0.381382869331E+03   -0.13043E-06   -0.14626E-06  2071   0.171E-03
  35 F= -.41708572E+03 E0= -.41677663E+03  d E =-.853163E-05
       N       E                     dE             d eps       ncg     rms          rms(c)
DAV:   1    -0.381383228141E+03   -0.35894E-03   -0.69694E-01  3920   0.142E+00    0.291E-01
RMM:   2    -0.381386802591E+03   -0.35744E-02   -0.24867E-02  3954   0.203E-01    0.468E-01
RMM:   3    -0.381388383075E+03   -0.15805E-02   -0.34588E-03  3972   0.705E-02    0.706E-01
RMM:   4    -0.381384443769E+03    0.39393E-02   -0.72873E-04  3963   0.329E-02    0.207E-01
RMM:   5    -0.381384425621E+03    0.18148E-04   -0.36616E-04  3943   0.242E-02    0.172E-01
RMM:   6    -0.381384366171E+03    0.59450E-04   -0.27985E-04  3946   0.214E-02    0.149E-01
RMM:   7    -0.381384299011E+03    0.67160E-04   -0.15031E-04  3946   0.159E-02    0.114E-01
RMM:   8    -0.381384267907E+03    0.31104E-04   -0.68613E-05  3942   0.105E-02    0.721E-02
RMM:   9    -0.381384235260E+03    0.32647E-04   -0.34173E-05  3930   0.776E-03    0.287E-02
RMM:  10    -0.381384230720E+03    0.45401E-05   -0.60165E-06  3516   0.321E-03    0.139E-02
RMM:  11    -0.381384230698E+03    0.22716E-07   -0.16974E-06  2154   0.177E-03
  36 F= -.41708545E+03 E0= -.41677644E+03  d E =0.273266E-03
       N       E                     dE             d eps       ncg     rms          rms(c)
DAV:   1    -0.381384760006E+03   -0.52929E-03   -0.93654E-03  3920   0.144E-01    0.194E-02
RMM:   2    -0.381384799467E+03   -0.39461E-04   -0.19683E-04  3955   0.217E-02    0.519E-02
RMM:   3    -0.381384789205E+03    0.10262E-04   -0.16868E-05  3953   0.527E-03    0.428E-02
RMM:   4    -0.381384775994E+03    0.13211E-04   -0.61483E-06  3475   0.321E-03    0.140E-02
RMM:   5    -0.381384776631E+03   -0.63678E-06   -0.28614E-06  2348   0.238E-03
  37 F= -.41708545E+03 E0= -.41677646E+03  d E =-.498079E-05
       N       E                     dE             d eps       ncg     rms          rms(c)
DAV:   1    -0.381385043725E+03   -0.26773E-03   -0.52229E-01  3920   0.127E+00    0.276E-01
RMM:   2    -0.381388075079E+03   -0.30314E-02   -0.18796E-02  3948   0.174E-01    0.463E-01
RMM:   3    -0.381390653675E+03   -0.25786E-02   -0.32305E-03  3960   0.667E-02    0.778E-01
RMM:   4    -0.381385688763E+03    0.49649E-02   -0.77923E-04  3951   0.338E-02    0.189E-01
RMM:   5    -0.381385692335E+03   -0.35719E-05   -0.32247E-04  3942   0.227E-02    0.164E-01
RMM:   6    -0.381385688389E+03    0.39457E-05   -0.22903E-04  3945   0.193E-02    0.156E-01
RMM:   7    -0.381385601059E+03    0.87330E-04   -0.13026E-04  3947   0.149E-02    0.103E-01
RMM:   8    -0.381385563444E+03    0.37615E-04   -0.63439E-05  3941   0.101E-02    0.542E-02
RMM:   9    -0.381385545754E+03    0.17690E-04   -0.21925E-05  3926   0.621E-03    0.260E-02
RMM:  10    -0.381385541997E+03    0.37573E-05   -0.42041E-06  2892   0.278E-03    0.129E-02
RMM:  11    -0.381385541613E+03    0.38365E-06   -0.11800E-06  2100   0.150E-03
  38 F= -.41708579E+03 E0= -.41677674E+03  d E =-.334129E-03
       N       E                     dE             d eps       ncg     rms          rms(c)
DAV:   1    -0.381385534535E+03    0.74614E-05   -0.43117E-03  4032   0.901E-02    0.139E-02
RMM:   2    -0.381385557870E+03   -0.23335E-04   -0.73548E-05  3951   0.141E-02    0.469E-02
RMM:   3    -0.381385547888E+03    0.99829E-05   -0.85658E-06  3831   0.367E-03    0.306E-02
RMM:   4    -0.381385543602E+03    0.42854E-05   -0.38496E-06  2706   0.246E-03    0.218E-02
RMM:   5    -0.381385541062E+03    0.25404E-05   -0.17133E-06  2140   0.190E-03    0.117E-02
RMM:   6    -0.381385540653E+03    0.40890E-06   -0.12967E-06  2058   0.167E-03
  39 F= -.41708580E+03 E0= -.41677677E+03  d E =-.131382E-04
       N       E                     dE             d eps       ncg     rms          rms(c)
DAV:   1    -0.381385308605E+03    0.23246E-03   -0.70009E-01  3920   0.144E+00    0.271E-01
RMM:   2    -0.381389636647E+03   -0.43280E-02   -0.24332E-02  3950   0.200E-01    0.566E-01
RMM:   3    -0.381392045279E+03   -0.24086E-02   -0.32216E-03  3967   0.670E-02    0.812E-01
RMM:   4    -0.381386799443E+03    0.52458E-02   -0.12655E-03  3948   0.428E-02    0.234E-01
RMM:   5    -0.381386512612E+03    0.28683E-03   -0.51240E-04  3942   0.287E-02    0.164E-01
RMM:   6    -0.381386423668E+03    0.88944E-04   -0.19548E-04  3944   0.184E-02    0.108E-01
RMM:   7    -0.381386397455E+03    0.26213E-04   -0.10232E-04  3948   0.134E-02    0.871E-02
RMM:   8    -0.381386393484E+03    0.39714E-05   -0.69095E-05  3942   0.107E-02    0.673E-02
RMM:   9    -0.381386365843E+03    0.27641E-04   -0.29325E-05  3931   0.722E-03    0.285E-02
RMM:  10    -0.381386361078E+03    0.47652E-05   -0.53818E-06  3351   0.313E-03    0.115E-02
RMM:  11    -0.381386361053E+03    0.24767E-07   -0.11925E-06  2076   0.153E-03
  40 F= -.41708594E+03 E0= -.41677697E+03  d E =-.136567E-03
       N       E                     dE             d eps       ncg     rms          rms(c)
DAV:   1    -0.381387562306E+03   -0.12012E-02   -0.21231E-01  3920   0.748E-01    0.146E-01
RMM:   2    -0.381388180847E+03   -0.61854E-03   -0.54079E-03  3955   0.106E-01    0.212E-01
RMM:   3    -0.381388051112E+03    0.12974E-03   -0.27566E-04  3986   0.227E-02    0.124E-01
RMM:   4    -0.381390185868E+03   -0.21348E-02   -0.53117E-04  3949   0.245E-02    0.502E-01
RMM:   5    -0.381388178760E+03    0.20071E-02   -0.38923E-04  3944   0.223E-02    0.199E-01
RMM:   6    -0.381388043018E+03    0.13574E-03   -0.15937E-04  3940   0.159E-02    0.128E-01
RMM:   7    -0.381387982024E+03    0.60995E-04   -0.79409E-05  3940   0.112E-02    0.612E-02
RMM:   8    -0.381387976348E+03    0.56757E-05   -0.34818E-05  3923   0.772E-03    0.411E-02
RMM:   9    -0.381387965811E+03    0.10537E-04   -0.93472E-06  3883   0.397E-03    0.132E-02
RMM:  10    -0.381387965522E+03    0.28950E-06   -0.14031E-06  2178   0.163E-03
  41 F= -.41708616E+03 E0= -.41677723E+03  d E =-.224402E-03
       N       E                     dE             d eps       ncg     rms          rms(c)
DAV:   1    -0.381388157492E+03   -0.19168E-03   -0.52218E-01  3920   0.127E+00    0.275E-01
RMM:   2    -0.381391322542E+03   -0.31650E-02   -0.18867E-02  3950   0.174E-01    0.477E-01
RMM:   3    -0.381393864631E+03   -0.25421E-02   -0.32772E-03  3962   0.671E-02    0.785E-01
RMM:   4    -0.381388814481E+03    0.50501E-02   -0.81077E-04  3951   0.344E-02    0.191E-01
RMM:   5    -0.381388784440E+03    0.30042E-04   -0.31760E-04  3942   0.226E-02    0.154E-01
RMM:   6    -0.381388770755E+03    0.13685E-04   -0.21758E-04  3945   0.189E-02    0.133E-01
RMM:   7    -0.381388712009E+03    0.58746E-04   -0.12384E-04  3948   0.145E-02    0.992E-02
RMM:   8    -0.381388684061E+03    0.27948E-04   -0.54326E-05  3938   0.930E-03    0.596E-02
RMM:   9    -0.381388662735E+03    0.21326E-04   -0.22154E-05  3921   0.623E-03    0.244E-02
RMM:  10    -0.381388659357E+03    0.33778E-05   -0.42570E-06  2926   0.280E-03    0.124E-02
RMM:  11    -0.381388659225E+03    0.13233E-06   -0.10890E-06  2100   0.144E-03
  42 F= -.41708645E+03 E0= -.41677747E+03  d E =-.289318E-03
       N       E                     dE             d eps       ncg     rms          rms(c)
DAV:   1    -0.381388611491E+03    0.47866E-04   -0.30524E-03  4060   0.807E-02    0.154E-02
RMM:   2    -0.381388625941E+03   -0.14450E-04   -0.69812E-05  3950   0.128E-02    0.390E-02
RMM:   3    -0.381388618876E+03    0.70648E-05   -0.53840E-06  3221   0.322E-03    0.216E-02
RMM:   4    -0.381388620199E+03   -0.13225E-05   -0.20213E-06  2277   0.186E-03    0.221E-02
RMM:   5    -0.381388620438E+03   -0.23917E-06   -0.32072E-06  2515   0.231E-03
  43 F= -.41708645E+03 E0= -.41677747E+03  d E =-.256168E-05
       N       E                     dE             d eps       ncg     rms          rms(c)
DAV:   1    -0.381388131778E+03    0.48842E-03   -0.68413E-01  3920   0.141E+00    0.275E-01
RMM:   2    -0.381391481010E+03   -0.33492E-02   -0.23423E-02  3953   0.197E-01    0.458E-01
RMM:   3    -0.381389842860E+03    0.16381E-02   -0.27013E-03  3971   0.643E-02    0.321E-01
RMM:   4    -0.381390845163E+03   -0.10023E-02   -0.72682E-04  3962   0.320E-02    0.437E-01
RMM:   5    -0.381389514108E+03    0.13311E-02   -0.60070E-04  3944   0.282E-02    0.218E-01
RMM:   6    -0.381389242450E+03    0.27166E-03   -0.23158E-04  3946   0.197E-02    0.122E-01
RMM:   7    -0.381389206252E+03    0.36198E-04   -0.11942E-04  3946   0.143E-02    0.971E-02
RMM:   8    -0.381389189564E+03    0.16688E-04   -0.70169E-05  3942   0.107E-02    0.665E-02
RMM:   9    -0.381389162581E+03    0.26983E-04   -0.28024E-05  3931   0.707E-03    0.291E-02
RMM:  10    -0.381389157949E+03    0.46325E-05   -0.51550E-06  3278   0.307E-03    0.139E-02
RMM:  11    -0.381389157907E+03    0.41480E-07   -0.13891E-06  2072   0.163E-03
  44 F= -.41708632E+03 E0= -.41677744E+03  d E =0.133965E-03
       N       E                     dE             d eps       ncg     rms          rms(c)
DAV:   1    -0.381389471536E+03   -0.31359E-03   -0.13357E-02  3920   0.182E-01    0.302E-02
RMM:   2    -0.381389504152E+03   -0.32616E-04   -0.29650E-04  3956   0.257E-02    0.405E-02
RMM:   3    -0.381389497217E+03    0.69348E-05   -0.19193E-05  3964   0.609E-03    0.263E-02
RMM:   4    -0.381389504685E+03   -0.74681E-05   -0.10724E-05  3901   0.425E-03    0.387E-02
RMM:   5    -0.381389535902E+03   -0.31217E-04   -0.12137E-05  3793   0.378E-03    0.689E-02
RMM:   6    -0.381389496719E+03    0.39183E-04   -0.76214E-06  3648   0.322E-03    0.198E-02
RMM:   7    -0.381389496846E+03   -0.12761E-06   -0.27875E-06  2382   0.229E-03
  45 F= -.41708633E+03 E0= -.41677746E+03  d E =-.117325E-04
       N       E                     dE             d eps       ncg     rms          rms(c)
DAV:   1    -0.381389633457E+03   -0.13674E-03   -0.52219E-01  3920   0.127E+00    0.277E-01
RMM:   2    -0.381392736807E+03   -0.31034E-02   -0.18795E-02  3950   0.174E-01    0.471E-01
RMM:   3    -0.381394857927E+03   -0.21211E-02   -0.32145E-03  3963   0.667E-02    0.750E-01
RMM:   4    -0.381390292618E+03    0.45653E-02   -0.74845E-04  3953   0.331E-02    0.193E-01
RMM:   5    -0.381390274363E+03    0.18255E-04   -0.32039E-04  3942   0.227E-02    0.161E-01
RMM:   6    -0.381390272197E+03    0.21664E-05   -0.23243E-04  3945   0.194E-02    0.153E-01
RMM:   7    -0.381390190639E+03    0.81557E-04   -0.13370E-04  3948   0.151E-02    0.104E-01
RMM:   8    -0.381390155166E+03    0.35473E-04   -0.61069E-05  3942   0.990E-03    0.569E-02
RMM:   9    -0.381390136983E+03    0.18183E-04   -0.23205E-05  3925   0.638E-03    0.293E-02
RMM:  10    -0.381390132227E+03    0.47557E-05   -0.48466E-06  3156   0.295E-03    0.135E-02
RMM:  11    -0.381390131757E+03    0.47036E-06   -0.12965E-06  2103   0.157E-03
  46 F= -.41708659E+03 E0= -.41677767E+03  d E =-.259920E-03
       N       E                     dE             d eps       ncg     rms          rms(c)
DAV:   1    -0.381390147746E+03   -0.15519E-04   -0.18567E-03  4060   0.574E-02    0.867E-03
RMM:   2    -0.381390156068E+03   -0.83218E-05   -0.30518E-05  3935   0.930E-03    0.254E-02
RMM:   3    -0.381390156731E+03   -0.66300E-06   -0.42317E-06  2864   0.262E-03
  47 F= -.41708661E+03 E0= -.41677768E+03  d E =-.157441E-04
       N       E                     dE             d eps       ncg     rms          rms(c)
DAV:   1    -0.381389646271E+03    0.50980E-03   -0.67320E-01  3920   0.139E+00    0.283E-01
RMM:   2    -0.381392861559E+03   -0.32153E-02   -0.23518E-02  3954   0.197E-01    0.438E-01
RMM:   3    -0.381391041006E+03    0.18206E-02   -0.27947E-03  3971   0.656E-02    0.265E-01
RMM:   4    -0.381391635319E+03   -0.59431E-03   -0.54720E-04  3958   0.294E-02    0.336E-01
RMM:   5    -0.381391616952E+03    0.18367E-04   -0.57456E-04  3954   0.261E-02    0.338E-01
RMM:   6    -0.381390762222E+03    0.85473E-03   -0.29696E-04  3945   0.217E-02    0.128E-01
RMM:   7    -0.381390718102E+03    0.44120E-04   -0.14134E-04  3944   0.154E-02    0.991E-02
RMM:   8    -0.381390702438E+03    0.15664E-04   -0.66731E-05  3940   0.104E-02    0.759E-02
RMM:   9    -0.381390669851E+03    0.32587E-04   -0.28266E-05  3931   0.703E-03    0.326E-02
RMM:  10    -0.381390664314E+03    0.55369E-05   -0.58032E-06  3463   0.320E-03    0.160E-02
RMM:  11    -0.381390663938E+03    0.37640E-06   -0.16044E-06  2128   0.172E-03
  48 F= -.41708645E+03 E0= -.41677764E+03  d E =0.150955E-03
       N       E                     dE             d eps       ncg     rms          rms(c)
DAV:   1    -0.381390985417E+03   -0.32110E-03   -0.13460E-02  3920   0.176E-01    0.233E-02
RMM:   2    -0.381391014151E+03   -0.28734E-04   -0.25915E-04  3955   0.250E-02    0.316E-02
RMM:   3    -0.381391025565E+03   -0.11414E-04   -0.21926E-05  3968   0.628E-03    0.477E-02
RMM:   4    -0.381391028879E+03   -0.33133E-05   -0.12317E-05  3837   0.397E-03    0.532E-02
RMM:   5    -0.381391008132E+03    0.20747E-04   -0.51691E-06  3249   0.288E-03    0.180E-02
RMM:   6    -0.381391007570E+03    0.56213E-06   -0.25143E-06  2265   0.223E-03
  49 F= -.41708647E+03 E0= -.41677766E+03  d E =-.115526E-04
       N       E                     dE             d eps       ncg     rms          rms(c)
DAV:   1    -0.381391136718E+03   -0.12859E-03   -0.52218E-01  3920   0.127E+00    0.276E-01
RMM:   2    -0.381394151822E+03   -0.30151E-02   -0.18793E-02  3950   0.174E-01    0.464E-01
RMM:   3    -0.381394747922E+03   -0.59610E-03   -0.30116E-03  3962   0.654E-02    0.618E-01
RMM:   4    -0.381391830636E+03    0.29173E-02   -0.58601E-04  3955   0.295E-02    0.202E-01
RMM:   5    -0.381391786064E+03    0.44572E-04   -0.32761E-04  3942   0.227E-02    0.162E-01
RMM:   6    -0.381391733781E+03    0.52283E-04   -0.21811E-04  3945   0.189E-02    0.124E-01
RMM:   7    -0.381391675625E+03    0.58156E-04   -0.12503E-04  3943   0.146E-02    0.875E-02
RMM:   8    -0.381391661768E+03    0.13856E-04   -0.48040E-05  3935   0.876E-03    0.653E-02
RMM:   9    -0.381391637692E+03    0.24077E-04   -0.21638E-05  3921   0.613E-03    0.252E-02
RMM:  10    -0.381391633997E+03    0.36944E-05   -0.43826E-06  2981   0.282E-03    0.127E-02
RMM:  11    -0.381391633769E+03    0.22814E-06   -0.10423E-06  2091   0.141E-03
  50 F= -.41708672E+03 E0= -.41677787E+03  d E =-.250613E-03
       N       E                     dE             d eps       ncg     rms          rms(c)
DAV:   1    -0.381391548074E+03    0.85923E-04   -0.40293E-03  4004   0.895E-02    0.148E-02
RMM:   2    -0.381391572408E+03   -0.24334E-04   -0.75274E-05  3949   0.140E-02    0.479E-02
RMM:   3    -0.381391557822E+03    0.14586E-04   -0.71795E-06  3629   0.343E-03    0.246E-02
RMM:   4    -0.381391555484E+03    0.23374E-05   -0.30903E-06  2453   0.239E-03    0.172E-02
RMM:   5    -0.381391555477E+03    0.70795E-08   -0.21440E-06  2220   0.208E-03
  51 F= -.41708674E+03 E0= -.41677789E+03  d E =-.229950E-04
       N       E                     dE             d eps       ncg     rms          rms(c)
DAV:   1    -0.381390809857E+03    0.74563E-03   -0.64987E-01  3920   0.135E+00    0.337E-01
RMM:   2    -0.381393994157E+03   -0.31843E-02   -0.24674E-02  3958   0.202E-01    0.453E-01
RMM:   3    -0.381394141584E+03   -0.14743E-03   -0.34901E-03  3972   0.725E-02    0.561E-01
RMM:   4    -0.381391959525E+03    0.21821E-02   -0.52831E-04  3962   0.279E-02    0.229E-01
RMM:   5    -0.381392360808E+03   -0.40128E-03   -0.66416E-04  3942   0.318E-02    0.284E-01
RMM:   6    -0.381392004707E+03    0.35610E-03   -0.54123E-04  3945   0.294E-02    0.209E-01
RMM:   7    -0.381391853193E+03    0.15151E-03   -0.23103E-04  3948   0.195E-02    0.145E-01
RMM:   8    -0.381391776334E+03    0.76859E-04   -0.99792E-05  3941   0.126E-02    0.765E-02
RMM:   9    -0.381391735531E+03    0.40803E-04   -0.43253E-05  3934   0.863E-03    0.278E-02
RMM:  10    -0.381391731223E+03    0.43073E-05   -0.64944E-06  3593   0.331E-03    0.136E-02
RMM:  11    -0.381391731700E+03   -0.47635E-06   -0.23743E-06  2287   0.207E-03
  52 F= -.41708680E+03 E0= -.41677800E+03  d E =-.602389E-04
       N       E                     dE             d eps       ncg     rms          rms(c)
DAV:   1    -0.381391737772E+03   -0.65488E-05   -0.44379E-05  4088   0.104E-02    0.904E-03
RMM:   2    -0.381391749334E+03   -0.11562E-04   -0.98473E-06  3870   0.414E-03    0.389E-02
RMM:   3    -0.381391745824E+03    0.35097E-05   -0.52929E-06  3272   0.272E-03    0.311E-02
RMM:   4    -0.381391737722E+03    0.81017E-05   -0.14388E-06  2140   0.152E-03    0.745E-03
RMM:   5    -0.381391737581E+03    0.14104E-06   -0.45025E-07  1971   0.936E-04
  53 F= -.41708680E+03 E0= -.41677799E+03  d E =0.942140E-06
       N       E                     dE             d eps       ncg     rms          rms(c)
DAV:   1    -0.381391828173E+03   -0.90450E-04   -0.52213E-01  3920   0.127E+00    0.276E-01
RMM:   2    -0.381394864586E+03   -0.30364E-02   -0.19031E-02  3949   0.175E-01    0.464E-01
RMM:   3    -0.381396288259E+03   -0.14237E-02   -0.31163E-03  3961   0.661E-02    0.689E-01
RMM:   4    -0.381392504085E+03    0.37842E-02   -0.66986E-04  3953   0.315E-02    0.194E-01
RMM:   5    -0.381392473238E+03    0.30847E-04   -0.31872E-04  3942   0.225E-02    0.158E-01
RMM:   6    -0.381392446005E+03    0.27233E-04   -0.21887E-04  3945   0.190E-02    0.134E-01
RMM:   7    -0.381392386539E+03    0.59466E-04   -0.12439E-04  3947   0.146E-02    0.998E-02
RMM:   8    -0.381392358779E+03    0.27760E-04   -0.53791E-05  3937   0.928E-03    0.599E-02
RMM:   9    -0.381392337489E+03    0.21290E-04   -0.22607E-05  3923   0.630E-03    0.250E-02
RMM:  10    -0.381392333899E+03    0.35900E-05   -0.43154E-06  2960   0.281E-03    0.125E-02
RMM:  11    -0.381392333726E+03    0.17257E-06   -0.10822E-06  2095   0.143E-03
  54 F= -.41708706E+03 E0= -.41677820E+03  d E =-.258782E-03
       N       E                     dE             d eps       ncg     rms          rms(c)
DAV:   1    -0.381392439084E+03   -0.10519E-03   -0.56659E-03  3948   0.102E-01    0.163E-02
RMM:   2    -0.381392471671E+03   -0.32587E-04   -0.10212E-04  3947   0.165E-02    0.586E-02
RMM:   3    -0.381392451669E+03    0.20003E-04   -0.94398E-06  3844   0.400E-03    0.302E-02
RMM:   4    -0.381392448986E+03    0.26828E-05   -0.26307E-06  2383   0.225E-03    0.219E-02
RMM:   5    -0.381392449811E+03   -0.82476E-06   -0.29790E-06  2392   0.239E-03
  55 F= -.41708704E+03 E0= -.41677819E+03  d E =0.224614E-04
       N       E                     dE             d eps       ncg     rms          rms(c)
DAV:   1    -0.381390680708E+03    0.17683E-02   -0.62419E-01  3920   0.134E+00    0.319E-01
RMM:   2    -0.381394252119E+03   -0.35714E-02   -0.23751E-02  3960   0.198E-01    0.482E-01
RMM:   3    -0.381398718041E+03   -0.44659E-02   -0.41657E-03  3977   0.760E-02    0.922E-01
RMM:   4    -0.381391770650E+03    0.69474E-02   -0.10044E-03  3951   0.384E-02    0.229E-01
RMM:   5    -0.381391849502E+03   -0.78852E-04   -0.45005E-04  3943   0.268E-02    0.210E-01
RMM:   6    -0.381391799831E+03    0.49672E-04   -0.39927E-04  3944   0.255E-02    0.201E-01
RMM:   7    -0.381391669240E+03    0.13059E-03   -0.20929E-04  3948   0.186E-02    0.144E-01
RMM:   8    -0.381391591229E+03    0.78011E-04   -0.95704E-05  3942   0.124E-02    0.718E-02
RMM:   9    -0.381391558002E+03    0.33227E-04   -0.39503E-05  3933   0.827E-03    0.288E-02
RMM:  10    -0.381391553739E+03    0.42627E-05   -0.67384E-06  3654   0.338E-03    0.147E-02
RMM:  11    -0.381391553838E+03   -0.98866E-07   -0.22154E-06  2256   0.200E-03
  56 F= -.41708671E+03 E0= -.41677789E+03  d E =0.321566E-03
       N       E                     dE             d eps       ncg     rms          rms(c)
DAV:   1    -0.381391629406E+03   -0.75667E-04   -0.75502E-02  3920   0.380E-01    0.745E-02
RMM:   2    -0.381391970053E+03   -0.34065E-03   -0.14995E-03  3944   0.617E-02    0.201E-01
RMM:   3    -0.381391791369E+03    0.17868E-03   -0.10080E-04  4001   0.138E-02    0.120E-01
RMM:   4    -0.381391797046E+03   -0.56770E-05   -0.31915E-05  3959   0.711E-03    0.113E-01
RMM:   5    -0.381391782670E+03    0.14376E-04   -0.66650E-05  3940   0.104E-02    0.988E-02
RMM:   6    -0.381391749900E+03    0.32769E-04   -0.49524E-05  3945   0.885E-03    0.685E-02
RMM:   7    -0.381391741171E+03    0.87293E-05   -0.27237E-05  3920   0.658E-03    0.477E-02
RMM:   8    -0.381391729255E+03    0.11916E-04   -0.11342E-05  3896   0.439E-03    0.149E-02
RMM:   9    -0.381391727927E+03    0.13282E-05   -0.17633E-06  2189   0.189E-03    0.729E-03
RMM:  10    -0.381391727777E+03    0.14978E-06   -0.81733E-07  2053   0.127E-03
  57 F= -.41708681E+03 E0= -.41677800E+03  d E =-.100090E-03
       N       E                     dE             d eps       ncg     rms          rms(c)
DAV:   1    -0.381391861260E+03   -0.13333E-03   -0.52172E-01  3920   0.127E+00    0.277E-01
RMM:   2    -0.381395177442E+03   -0.33162E-02   -0.19403E-02  3948   0.175E-01    0.490E-01
RMM:   3    -0.381398596467E+03   -0.34190E-02   -0.34580E-03  3960   0.684E-02    0.854E-01
RMM:   4    -0.381392535439E+03    0.60610E-02   -0.93529E-04  3950   0.369E-02    0.190E-01
RMM:   5    -0.381392494742E+03    0.40697E-04   -0.31835E-04  3942   0.227E-02    0.150E-01
RMM:   6    -0.381392480308E+03    0.14434E-04   -0.21140E-04  3945   0.187E-02    0.127E-01
RMM:   7    -0.381392427132E+03    0.53176E-04   -0.11982E-04  3944   0.143E-02    0.947E-02
RMM:   8    -0.381392404354E+03    0.22779E-04   -0.53143E-05  3936   0.918E-03    0.625E-02
RMM:   9    -0.381392381250E+03    0.23104E-04   -0.22066E-05  3920   0.622E-03    0.221E-02
RMM:  10    -0.381392378095E+03    0.31546E-05   -0.42754E-06  2934   0.282E-03    0.103E-02
RMM:  11    -0.381392378282E+03   -0.18644E-06   -0.10135E-06  2099   0.138E-03
  58 F= -.41708706E+03 E0= -.41677820E+03  d E =-.249221E-03
       N       E                     dE             d eps       ncg     rms          rms(c)
DAV:   1    -0.381392300682E+03    0.77413E-04   -0.48151E-03  4032   0.976E-02    0.299E-02
RMM:   2    -0.381392337914E+03   -0.37232E-04   -0.13310E-04  3951   0.170E-02    0.751E-02
RMM:   3    -0.381392315065E+03    0.22849E-04   -0.85117E-06  3695   0.401E-03    0.439E-02
RMM:   4    -0.381392331081E+03   -0.16016E-04   -0.70917E-06  3529   0.315E-03    0.601E-02
RMM:   5    -0.381392325678E+03    0.54032E-05   -0.13506E-05  3905   0.463E-03    0.560E-02
RMM:   6    -0.381392311783E+03    0.13895E-04   -0.91419E-06  3865   0.380E-03    0.252E-02
RMM:   7    -0.381392309156E+03    0.26272E-05   -0.36056E-06  2614   0.247E-03    0.133E-02
RMM:   8    -0.381392308739E+03    0.41707E-06   -0.12566E-06  2124   0.164E-03
  59 F= -.41708710E+03 E0= -.41677824E+03  d E =-.406755E-04
       N       E                     dE             d eps       ncg     rms          rms(c)
DAV:   1    -0.381390157668E+03    0.21515E-02   -0.64746E-01  3920   0.136E+00    0.304E-01
RMM:   2    -0.381393419247E+03   -0.32616E-02   -0.23925E-02  3956   0.200E-01    0.447E-01
RMM:   3    -0.381394532545E+03   -0.11133E-02   -0.34317E-03  3975   0.709E-02    0.648E-01
RMM:   4    -0.381391307712E+03    0.32248E-02   -0.64265E-04  3961   0.308E-02    0.212E-01
RMM:   5    -0.381391371709E+03   -0.63997E-04   -0.42806E-04  3943   0.259E-02    0.199E-01
RMM:   6    -0.381391279461E+03    0.92248E-04   -0.35500E-04  3946   0.241E-02    0.172E-01
RMM:   7    -0.381391187331E+03    0.92130E-04   -0.18802E-04  3946   0.176E-02    0.126E-01
RMM:   8    -0.381391140865E+03    0.46465E-04   -0.79964E-05  3942   0.113E-02    0.753E-02
RMM:   9    -0.381391105939E+03    0.34926E-04   -0.36941E-05  3931   0.798E-03    0.332E-02
RMM:  10    -0.381391099933E+03    0.60064E-05   -0.67747E-06  3684   0.338E-03    0.144E-02
RMM:  11    -0.381391099789E+03    0.14413E-06   -0.20958E-06  2193   0.196E-03
  60 F= -.41708685E+03 E0= -.41677798E+03  d E =0.255086E-03
       N       E                     dE             d eps       ncg     rms          rms(c)
DAV:   1    -0.381391329267E+03   -0.22933E-03   -0.17556E-02  3920   0.184E-01    0.237E-02
RMM:   2    -0.381391373864E+03   -0.44597E-04   -0.28413E-04  3949   0.281E-02    0.601E-02
RMM:   3    -0.381391363202E+03    0.10662E-04   -0.22023E-05  3974   0.641E-03    0.416E-02
RMM:   4    -0.381391355042E+03    0.81607E-05   -0.52024E-06  3129   0.293E-03    0.249E-02
RMM:   5    -0.381391355545E+03   -0.50293E-06   -0.64005E-06  3728   0.326E-03
  61 F= -.41708687E+03 E0= -.41677801E+03  d E =-.174588E-04
       N       E                     dE             d eps       ncg     rms          rms(c)
DAV:   1    -0.381391503670E+03   -0.14863E-03   -0.52223E-01  3920   0.127E+00    0.283E-01
RMM:   2    -0.381394800469E+03   -0.32968E-02   -0.19425E-02  3950   0.176E-01    0.490E-01
RMM:   3    -0.381396708950E+03   -0.19085E-02   -0.33711E-03  3963   0.684E-02    0.751E-01
RMM:   4    -0.381392187758E+03    0.45212E-02   -0.75979E-04  3952   0.336E-02    0.206E-01
RMM:   5    -0.381392151931E+03    0.35828E-04   -0.31900E-04  3942   0.227E-02    0.166E-01
RMM:   6    -0.381392169737E+03   -0.17807E-04   -0.24788E-04  3945   0.199E-02    0.171E-01
RMM:   7    -0.381392059618E+03    0.11012E-03   -0.14848E-04  3946   0.158E-02    0.107E-01
RMM:   8    -0.381392019015E+03    0.40603E-04   -0.68631E-05  3941   0.105E-02    0.545E-02
RMM:   9    -0.381392000738E+03    0.18277E-04   -0.22576E-05  3927   0.634E-03    0.246E-02
RMM:  10    -0.381391997350E+03    0.33882E-05   -0.44652E-06  3010   0.286E-03    0.129E-02
RMM:  11    -0.381391997124E+03    0.22566E-06   -0.11055E-06  2104   0.145E-03
  62 F= -.41708714E+03 E0= -.41677825E+03  d E =-.277243E-03
       N       E                     dE             d eps       ncg     rms          rms(c)
DAV:   1    -0.381392012665E+03   -0.15315E-04   -0.41545E-03  3948   0.914E-02    0.213E-02
RMM:   2    -0.381392060001E+03   -0.47336E-04   -0.96709E-05  3952   0.152E-02    0.730E-02
RMM:   3    -0.381392022829E+03    0.37172E-04   -0.96869E-06  3856   0.396E-03    0.299E-02
RMM:   4    -0.381392024734E+03   -0.19058E-05   -0.48606E-06  3113   0.287E-03    0.303E-02
RMM:   5    -0.381392024531E+03    0.20341E-06   -0.53403E-06  3373   0.303E-03
  63 F= -.41708711E+03 E0= -.41677825E+03  d E =0.380913E-04
       N       E                     dE             d eps       ncg     rms          rms(c)
DAV:   1    -0.381389521340E+03    0.25034E-02   -0.62772E-01  3920   0.135E+00    0.280E-01
RMM:   2    -0.381394251238E+03   -0.47299E-02   -0.23024E-02  3956   0.195E-01    0.599E-01
RMM:   3    -0.381399343726E+03   -0.50925E-02   -0.40780E-03  3975   0.735E-02    0.102E+00
RMM:   4    -0.381390720325E+03    0.86234E-02   -0.16495E-03  3942   0.491E-02    0.226E-01
RMM:   5    -0.381390474596E+03    0.24573E-03   -0.38026E-04  3945   0.250E-02    0.129E-01
RMM:   6    -0.381390539011E+03   -0.64415E-04   -0.22990E-04  3944   0.196E-02    0.157E-01
RMM:   7    -0.381390459824E+03    0.79187E-04   -0.14809E-04  3945   0.157E-02    0.104E-01
RMM:   8    -0.381390430569E+03    0.29255E-04   -0.78893E-05  3937   0.113E-02    0.639E-02
RMM:   9    -0.381390409740E+03    0.20830E-04   -0.28364E-05  3932   0.709E-03    0.338E-02
RMM:  10    -0.381390403227E+03    0.65128E-05   -0.72213E-06  3781   0.355E-03    0.144E-02
RMM:  11    -0.381390402668E+03    0.55933E-06   -0.16911E-06  2128   0.179E-03
  64 F= -.41708690E+03 E0= -.41677797E+03  d E =0.209550E-03
       N       E                     dE             d eps       ncg     rms          rms(c)
DAV:   1    -0.381390701885E+03   -0.29866E-03   -0.13594E-02  3920   0.163E-01    0.189E-02
RMM:   2    -0.381390730055E+03   -0.28170E-04   -0.21059E-04  3951   0.243E-02    0.396E-02
RMM:   3    -0.381390724598E+03    0.54562E-05   -0.17464E-05  3946   0.575E-03    0.273E-02
RMM:   4    -0.381390728098E+03   -0.34999E-05   -0.44750E-06  2874   0.263E-03    0.308E-02
RMM:   5    -0.381390723841E+03    0.42569E-05   -0.47234E-06  3022   0.266E-03    0.246E-02
RMM:   6    -0.381390719646E+03    0.41954E-05   -0.18103E-06  2170   0.196E-03    0.109E-02
RMM:   7    -0.381390719852E+03   -0.20615E-06   -0.17498E-06  2101   0.190E-03
  65 F= -.41708690E+03 E0= -.41677800E+03  d E =-.682007E-05
       N       E                     dE             d eps       ncg     rms          rms(c)
DAV:   1    -0.381390876775E+03   -0.15713E-03   -0.52213E-01  3920   0.127E+00    0.277E-01
RMM:   2    -0.381394073978E+03   -0.31972E-02   -0.19201E-02  3948   0.175E-01    0.478E-01
RMM:   3    -0.381397019713E+03   -0.29457E-02   -0.33515E-03  3960   0.676E-02    0.814E-01
RMM:   4    -0.381391543565E+03    0.54761E-02   -0.85573E-04  3950   0.354E-02    0.190E-01
RMM:   5    -0.381391509966E+03    0.33600E-04   -0.31918E-04  3942   0.227E-02    0.152E-01
RMM:   6    -0.381391495183E+03    0.14783E-04   -0.21726E-04  3946   0.189E-02    0.131E-01
RMM:   7    -0.381391437406E+03    0.57777E-04   -0.12481E-04  3945   0.146E-02    0.982E-02
RMM:   8    -0.381391412652E+03    0.24755E-04   -0.52102E-05  3937   0.914E-03    0.606E-02
RMM:   9    -0.381391391087E+03    0.21565E-04   -0.22431E-05  3921   0.628E-03    0.251E-02
RMM:  10    -0.381391387363E+03    0.37232E-05   -0.45704E-06  3036   0.288E-03    0.125E-02
RMM:  11    -0.381391387085E+03    0.27889E-06   -0.10285E-06  2095   0.140E-03
  66 F= -.41708718E+03 E0= -.41677824E+03  d E =-.275549E-03
       N       E                     dE             d eps       ncg     rms          rms(c)
DAV:   1    -0.381391258263E+03    0.12910E-03   -0.33399E-03  4060   0.805E-02    0.152E-02
RMM:   2    -0.381391266884E+03   -0.86201E-05   -0.61281E-05  3947   0.128E-02    0.246E-02
RMM:   3    -0.381391264004E+03    0.28791E-05   -0.43795E-06  2853   0.306E-03    0.139E-02
RMM:   4    -0.381391278923E+03   -0.14919E-04   -0.41711E-06  2799   0.242E-03    0.414E-02
RMM:   5    -0.381391266422E+03    0.12501E-04   -0.43548E-06  2904   0.251E-03    0.227E-02
RMM:   6    -0.381391264006E+03    0.24159E-05   -0.11761E-06  2106   0.164E-03    0.980E-03
RMM:   7    -0.381391263889E+03    0.11716E-06   -0.92145E-07  2035   0.138E-03
  67 F= -.41708721E+03 E0= -.41677826E+03  d E =-.296166E-04
       N       E                     dE             d eps       ncg     rms          rms(c)
DAV:   1    -0.381388397024E+03    0.28670E-02   -0.62352E-01  3920   0.135E+00    0.267E-01
RMM:   2    -0.381393213358E+03   -0.48163E-02   -0.22651E-02  3951   0.193E-01    0.640E-01
RMM:   3    -0.381395048001E+03   -0.18346E-02   -0.32059E-03  3969   0.668E-02    0.815E-01
RMM:   4    -0.381389830921E+03    0.52171E-02   -0.14353E-03  3941   0.455E-02    0.255E-01
RMM:   5    -0.381389442136E+03    0.38878E-03   -0.55202E-04  3941   0.298E-02    0.173E-01
RMM:   6    -0.381389376559E+03    0.65577E-04   -0.19263E-04  3945   0.183E-02    0.129E-01
RMM:   7    -0.381389320932E+03    0.55627E-04   -0.10611E-04  3944   0.136E-02    0.846E-02
RMM:   8    -0.381389316460E+03    0.44719E-05   -0.71652E-05  3940   0.109E-02    0.604E-02
RMM:   9    -0.381389297368E+03    0.19092E-04   -0.28081E-05  3931   0.703E-03    0.330E-02
RMM:  10    -0.381389291066E+03    0.63022E-05   -0.64709E-06  3656   0.340E-03    0.127E-02
RMM:  11    -0.381389290772E+03    0.29457E-06   -0.13212E-06  2083   0.161E-03
  68 F= -.41708707E+03 E0= -.41677809E+03  d E =0.142067E-03
