LAMMPS (29 Aug 2024)
Running on 3 partitions of processors
    Step     MaxReplicaForce  MaxAtomForce      GradV0         GradV1         GradVc          EBF            EBR            RDT            RD1            PE1            RD2            PE2            RD3            PE3       
         0   123.15719        5893.7905      1.1274284      113.66291      130.0951       71.410438      57.161069      6.336006       0              -400575        0.39322236     -400503.59     1              -400560.75     
       100   67.411192        1732.4942      3.993283       44.500396      69.893288      35.836306      44.55966       6.003162       0              -400575        0.38255374     -400539.17     1              -400583.73     
       200   31.016497        392.2778       0.079191672    14.712964      33.814088      13.458216      25.826217      5.6567914      0              -400575        0.37330052     -400561.54     1              -400587.37     
       300   12.962687        57.412024      0.071965815    9.1007659      18.421428      11.408681      24.537659      5.6386053      0              -400575        0.37315725     -400563.59     1              -400588.13     
       400   8.9205383        23.959559      0.29369895     6.3703975      16.715535      10.821003      24.321806      5.6502456      0              -400575        0.37368768     -400564.18     1              -400588.5      
       500   7.3299737        20.805386      0.063996753    4.844804       16.813571      10.568923      24.257402      5.664898       0              -400575        0.37428382     -400564.43     1              -400588.69     
       600   5.9848806        14.530583      0.059779993    3.8181402      16.767053      10.235833      24.037315      5.6772409      0              -400575        0.37487819     -400564.77     1              -400588.8      
       700   5.5741324        13.75223       0.057260534    3.0704696      17.407733      10.183666      24.05869       5.6892781      0              -400575        0.37549838     -400564.82     1              -400588.88     
       741   5.4304542        13.361461      0.56321024     2.8150744      17.661016      10.171343      24.069538      5.694206       0              -400575        0.37576863     -400564.83     1              -400588.9      
Climbing replica = 2
    Step     MaxReplicaForce  MaxAtomForce      GradV0         GradV1         GradVc          EBF            EBR            RDT            RD1            PE1            RD2            PE2            RD3            PE3       
       741   17.660941        144.57603      0.56216951     2.8149647      17.660941      10.171346      24.069534      5.694206       0              -400575        0.37576863     -400564.83     1              -400588.9      
       841   20.259528        183.97779      0.06424165     2.4595843      20.259528      11.524222      25.452774      5.7098024      0              -400575        0.38261872     -400563.48     1              -400588.93     
       941   18.732267        191.34142      0.050613397    2.0578074      18.732267      13.699611      27.659663      5.7324259      0              -400575        0.39225562     -400561.3      1              -400588.96     
      1012   16.902925        154.26905      1.4861485      1.8149894      16.902925      14.418377      28.395922      5.7413873      0              -400575        0.39803533     -400560.58     1              -400588.98     
