 vasp.5.4.4.18Apr17-6-g9f103f2a35 (build Nov 06 2023 00:46:14) complex          
  
 executed on             LinuxIFC date 2025.07.20  18:06:35
 running on   48 total cores
 distrk:  each k-point on   48 cores,    1 groups
 distr:  one band on NCORES_PER_BAND=   8 cores,    6 groups


--------------------------------------------------------------------------------------------------------


 INCAR:
 POTCAR:    PAW_PBE Pt 04Feb2005                  
 POTCAR:    PAW_PBE Pt 04Feb2005                  
  local pseudopotential read in
  partial core-charges read in
  partial kinetic energy density read in
  atomic valenz-charges read in
  non local Contribution for L=           2  read in
    real space projection operators read in
  non local Contribution for L=           2  read in
    real space projection operators read in
  non local Contribution for L=           0  read in
    real space projection operators read in
  non local Contribution for L=           0  read in
    real space projection operators read in
  non local Contribution for L=           1  read in
    real space projection operators read in
  non local Contribution for L=           1  read in
    real space projection operators read in
    PAW grid and wavefunctions read in
 
   number of l-projection  operators is LMAX  =           6
   number of lm-projection operators is LMMAX =          18
 
  PAW_PBE Pt 04Feb2005                  :
 energy of atom  1       EATOM= -729.1176
 kinetic energy error for atom=    0.0021 (will be added to EATOM!!)
 
 
 POSCAR: Pt                                      
  positions in cartesian coordinates
  No initial velocities read in
 exchange correlation table for  LEXCH =        8
   RHO(1)=    0.500       N(1)  =     2000
   RHO(2)=  100.500       N(2)  =     4000

 VTST: version 3.2, (02/03/18)

 CHAIN: initializing optimizer
 
 OPT: Using VASP QUASI-newton optimizer
 CHAIN: Read ICHAIN            0
 
 POSCAR: Pt                                      
  positions in cartesian coordinates
  No initial velocities read in
 


--------------------------------------------------------------------------------------------------------


 ion  position               nearest neighbor table
   1  0.000  0.000  0.000-   5 2.79   6 2.79   5 2.79   6 2.79   4 2.79   4 2.79   4 2.79   4 2.79
                             2 2.81   3 2.81
   2  0.667  0.000  0.333-   4 2.79   4 2.79   5 2.79   5 2.79   5 2.79   5 2.79   6 2.79   6 2.79
                             1 2.81   3 2.81
   3  0.333  0.000  0.667-   4 2.79   4 2.79   6 2.79   6 2.79   6 2.79   6 2.79   5 2.79   5 2.79
                             1 2.81   2 2.81
   4  0.500  0.500  0.000-   2 2.79   3 2.79   2 2.79   3 2.79   1 2.79   1 2.79   1 2.79   1 2.79
                             6 2.81   5 2.81
   5  0.167  0.500  0.333-   1 2.79   1 2.79   2 2.79   2 2.79   2 2.79   2 2.79   3 2.79   3 2.79
                             4 2.81   6 2.81
   6  0.833  0.500  0.667-   1 2.79   1 2.79   3 2.79   3 2.79   3 2.79   3 2.79   2 2.79   2 2.79
                             4 2.81   5 2.81
 
  LATTYP: Found a simple orthorhombic cell.
 ALAT       =     2.7491792216
 B/A-ratio  =     1.7673987828
 C/A-ratio  =     2.4994793268
  
  Lattice vectors:
  
 A1 = (   0.0000000000,  -2.7491792216,   0.0000000000)
 A2 = (  -4.8588960100,   0.0000000000,   0.0000000000)
 A3 = (   0.0000000000,   0.0000000000,  -6.8715166300)


Analysis of symmetry for initial positions (statically):
=====================================================================
 Subroutine PRICEL returns following result:
 
  LATTYP: Found a body centered orthorhombic cell.
 ALAT       =     2.7491792216
 B/A-ratio  =     1.0204081829
 C/A-ratio  =     1.4430750629
  
  Lattice vectors:
  
 A1 = (   2.4294480536,   1.3745896108,  -0.0000000687)
 A2 = (   0.8098160179,  -1.3745896108,   2.2905055204)
 A3 = (  -0.8098160179,  -1.3745896108,  -2.2905055204)
 
   6 primitive cells build up your supercell.
 

 Routine SETGRP: Setting up the symmetry group for a 
 simple orthorhombic supercell.


 Subroutine GETGRP returns: Found  4 space group operations
 (whereof  4 operations were pure point group operations)
 out of a pool of  8 trial point group operations.


The static configuration has the point symmetry C_2h.


Analysis of symmetry for dynamics (positions and initial velocities):
=====================================================================
 Subroutine PRICEL returns following result:
 
  LATTYP: Found a body centered orthorhombic cell.
 ALAT       =     2.7491792216
 B/A-ratio  =     1.0204081829
 C/A-ratio  =     1.4430750629
  
  Lattice vectors:
  
 A1 = (   2.4294480536,   1.3745896108,  -0.0000000687)
 A2 = (   0.8098160179,  -1.3745896108,   2.2905055204)
 A3 = (  -0.8098160179,  -1.3745896108,  -2.2905055204)
 
   6 primitive cells build up your supercell.
 

 Routine SETGRP: Setting up the symmetry group for a 
 simple orthorhombic supercell.


 Subroutine GETGRP returns: Found  4 space group operations
 (whereof  4 operations were pure point group operations)
 out of a pool of  8 trial point group operations.


The dynamic configuration has the point symmetry C_2h.


 Subroutine INISYM returns: Found  4 space group operations
 (whereof  4 operations are pure point group operations),
 and found     6 'primitive' translations

 
 
 KPOINTS: K-Spacing Value to Generate K-Mesh: 0.02

Automatic generation of k-mesh.
Space group operators:
 irot       det(A)        alpha          n_x          n_y          n_z        tau_x        tau_y        tau_z
    1     1.000000     0.000000     1.000000     0.000000     0.000000     0.000000     0.000000     0.000000
    2    -1.000000     0.000000     1.000000     0.000000     0.000000     0.000000     0.000000     0.000000
    3     1.000000   180.000000     0.000000     1.000000     0.000000     0.000000     0.000000     0.000000
    4    -1.000000   180.000000     0.000000     1.000000     0.000000     0.000000     0.000000     0.000000
 
 Subroutine IBZKPT returns following result:
 ===========================================
 
 Found    390 irreducible k-points:
 
 Following reciprocal coordinates:
            Coordinates               Weight
  0.000000  0.000000  0.000000      1.000000
  0.090909  0.000000  0.000000      2.000000
  0.181818  0.000000  0.000000      2.000000
  0.272727  0.000000  0.000000      2.000000
  0.363636  0.000000  0.000000      2.000000
  0.454545  0.000000  0.000000      2.000000
  0.000000  0.055556  0.000000      2.000000
  0.090909  0.055556  0.000000      4.000000
  0.181818  0.055556  0.000000      4.000000
  0.272727  0.055556  0.000000      4.000000
  0.363636  0.055556  0.000000      4.000000
  0.454545  0.055556  0.000000      4.000000
  0.000000  0.111111  0.000000      2.000000
  0.090909  0.111111  0.000000      4.000000
  0.181818  0.111111  0.000000      4.000000
  0.272727  0.111111  0.000000      4.000000
  0.363636  0.111111  0.000000      4.000000
  0.454545  0.111111  0.000000      4.000000
  0.000000  0.166667  0.000000      2.000000
  0.090909  0.166667  0.000000      4.000000
  0.181818  0.166667  0.000000      4.000000
  0.272727  0.166667  0.000000      4.000000
  0.363636  0.166667  0.000000      4.000000
  0.454545  0.166667  0.000000      4.000000
  0.000000  0.222222  0.000000      2.000000
  0.090909  0.222222  0.000000      4.000000
  0.181818  0.222222  0.000000      4.000000
  0.272727  0.222222  0.000000      4.000000
  0.363636  0.222222  0.000000      4.000000
  0.454545  0.222222  0.000000      4.000000
  0.000000  0.277778  0.000000      2.000000
  0.090909  0.277778  0.000000      4.000000
  0.181818  0.277778  0.000000      4.000000
  0.272727  0.277778  0.000000      4.000000
  0.363636  0.277778  0.000000      4.000000
  0.454545  0.277778  0.000000      4.000000
  0.000000  0.333333  0.000000      2.000000
  0.090909  0.333333  0.000000      4.000000
  0.181818  0.333333  0.000000      4.000000
  0.272727  0.333333  0.000000      4.000000
  0.363636  0.333333  0.000000      4.000000
  0.454545  0.333333  0.000000      4.000000
  0.000000  0.388889  0.000000      2.000000
  0.090909  0.388889  0.000000      4.000000
  0.181818  0.388889  0.000000      4.000000
  0.272727  0.388889  0.000000      4.000000
  0.363636  0.388889  0.000000      4.000000
  0.454545  0.388889  0.000000      4.000000
  0.000000  0.444444  0.000000      2.000000
  0.090909  0.444444  0.000000      4.000000
  0.181818  0.444444  0.000000      4.000000
  0.272727  0.444444  0.000000      4.000000
  0.363636  0.444444  0.000000      4.000000
  0.454545  0.444444  0.000000      4.000000
  0.000000  0.500000  0.000000      1.000000
  0.090909  0.500000  0.000000      2.000000
  0.181818  0.500000  0.000000      2.000000
  0.272727  0.500000  0.000000      2.000000
  0.363636  0.500000  0.000000      2.000000
  0.454545  0.500000  0.000000      2.000000
  0.000000  0.000000  0.142857      2.000000
  0.090909  0.000000  0.142857      2.000000
  0.181818  0.000000  0.142857      2.000000
  0.272727  0.000000  0.142857      2.000000
  0.363636  0.000000  0.142857      2.000000
  0.454545  0.000000  0.142857      2.000000
 -0.454545  0.000000  0.142857      2.000000
 -0.363636  0.000000  0.142857      2.000000
 -0.272727  0.000000  0.142857      2.000000
 -0.181818  0.000000  0.142857      2.000000
 -0.090909  0.000000  0.142857      2.000000
  0.000000  0.055556  0.142857      4.000000
  0.090909  0.055556  0.142857      4.000000
  0.181818  0.055556  0.142857      4.000000
  0.272727  0.055556  0.142857      4.000000
  0.363636  0.055556  0.142857      4.000000
  0.454545  0.055556  0.142857      4.000000
 -0.454545  0.055556  0.142857      4.000000
 -0.363636  0.055556  0.142857      4.000000
 -0.272727  0.055556  0.142857      4.000000
 -0.181818  0.055556  0.142857      4.000000
 -0.090909  0.055556  0.142857      4.000000
  0.000000  0.111111  0.142857      4.000000
  0.090909  0.111111  0.142857      4.000000
  0.181818  0.111111  0.142857      4.000000
  0.272727  0.111111  0.142857      4.000000
  0.363636  0.111111  0.142857      4.000000
  0.454545  0.111111  0.142857      4.000000
 -0.454545  0.111111  0.142857      4.000000
 -0.363636  0.111111  0.142857      4.000000
 -0.272727  0.111111  0.142857      4.000000
 -0.181818  0.111111  0.142857      4.000000
 -0.090909  0.111111  0.142857      4.000000
  0.000000  0.166667  0.142857      4.000000
  0.090909  0.166667  0.142857      4.000000
  0.181818  0.166667  0.142857      4.000000
  0.272727  0.166667  0.142857      4.000000
  0.363636  0.166667  0.142857      4.000000
  0.454545  0.166667  0.142857      4.000000
 -0.454545  0.166667  0.142857      4.000000
 -0.363636  0.166667  0.142857      4.000000
 -0.272727  0.166667  0.142857      4.000000
 -0.181818  0.166667  0.142857      4.000000
 -0.090909  0.166667  0.142857      4.000000
  0.000000  0.222222  0.142857      4.000000
  0.090909  0.222222  0.142857      4.000000
  0.181818  0.222222  0.142857      4.000000
  0.272727  0.222222  0.142857      4.000000
  0.363636  0.222222  0.142857      4.000000
  0.454545  0.222222  0.142857      4.000000
 -0.454545  0.222222  0.142857      4.000000
 -0.363636  0.222222  0.142857      4.000000
 -0.272727  0.222222  0.142857      4.000000
 -0.181818  0.222222  0.142857      4.000000
 -0.090909  0.222222  0.142857      4.000000
  0.000000  0.277778  0.142857      4.000000
  0.090909  0.277778  0.142857      4.000000
  0.181818  0.277778  0.142857      4.000000
  0.272727  0.277778  0.142857      4.000000
  0.363636  0.277778  0.142857      4.000000
  0.454545  0.277778  0.142857      4.000000
 -0.454545  0.277778  0.142857      4.000000
 -0.363636  0.277778  0.142857      4.000000
 -0.272727  0.277778  0.142857      4.000000
 -0.181818  0.277778  0.142857      4.000000
 -0.090909  0.277778  0.142857      4.000000
  0.000000  0.333333  0.142857      4.000000
  0.090909  0.333333  0.142857      4.000000
  0.181818  0.333333  0.142857      4.000000
  0.272727  0.333333  0.142857      4.000000
  0.363636  0.333333  0.142857      4.000000
  0.454545  0.333333  0.142857      4.000000
 -0.454545  0.333333  0.142857      4.000000
 -0.363636  0.333333  0.142857      4.000000
 -0.272727  0.333333  0.142857      4.000000
 -0.181818  0.333333  0.142857      4.000000
 -0.090909  0.333333  0.142857      4.000000
  0.000000  0.388889  0.142857      4.000000
  0.090909  0.388889  0.142857      4.000000
  0.181818  0.388889  0.142857      4.000000
  0.272727  0.388889  0.142857      4.000000
  0.363636  0.388889  0.142857      4.000000
  0.454545  0.388889  0.142857      4.000000
 -0.454545  0.388889  0.142857      4.000000
 -0.363636  0.388889  0.142857      4.000000
 -0.272727  0.388889  0.142857      4.000000
 -0.181818  0.388889  0.142857      4.000000
 -0.090909  0.388889  0.142857      4.000000
  0.000000  0.444444  0.142857      4.000000
  0.090909  0.444444  0.142857      4.000000
  0.181818  0.444444  0.142857      4.000000
  0.272727  0.444444  0.142857      4.000000
  0.363636  0.444444  0.142857      4.000000
  0.454545  0.444444  0.142857      4.000000
 -0.454545  0.444444  0.142857      4.000000
 -0.363636  0.444444  0.142857      4.000000
 -0.272727  0.444444  0.142857      4.000000
 -0.181818  0.444444  0.142857      4.000000
 -0.090909  0.444444  0.142857      4.000000
  0.000000  0.500000  0.142857      2.000000
  0.090909  0.500000  0.142857      2.000000
  0.181818  0.500000  0.142857      2.000000
  0.272727  0.500000  0.142857      2.000000
  0.363636  0.500000  0.142857      2.000000
  0.454545  0.500000  0.142857      2.000000
 -0.454545  0.500000  0.142857      2.000000
 -0.363636  0.500000  0.142857      2.000000
 -0.272727  0.500000  0.142857      2.000000
 -0.181818  0.500000  0.142857      2.000000
 -0.090909  0.500000  0.142857      2.000000
  0.000000  0.000000  0.285714      2.000000
  0.090909  0.000000  0.285714      2.000000
  0.181818  0.000000  0.285714      2.000000
  0.272727  0.000000  0.285714      2.000000
  0.363636  0.000000  0.285714      2.000000
  0.454545  0.000000  0.285714      2.000000
 -0.454545  0.000000  0.285714      2.000000
 -0.363636  0.000000  0.285714      2.000000
 -0.272727  0.000000  0.285714      2.000000
 -0.181818  0.000000  0.285714      2.000000
 -0.090909  0.000000  0.285714      2.000000
  0.000000  0.055556  0.285714      4.000000
  0.090909  0.055556  0.285714      4.000000
  0.181818  0.055556  0.285714      4.000000
  0.272727  0.055556  0.285714      4.000000
  0.363636  0.055556  0.285714      4.000000
  0.454545  0.055556  0.285714      4.000000
 -0.454545  0.055556  0.285714      4.000000
 -0.363636  0.055556  0.285714      4.000000
 -0.272727  0.055556  0.285714      4.000000
 -0.181818  0.055556  0.285714      4.000000
 -0.090909  0.055556  0.285714      4.000000
  0.000000  0.111111  0.285714      4.000000
  0.090909  0.111111  0.285714      4.000000
  0.181818  0.111111  0.285714      4.000000
  0.272727  0.111111  0.285714      4.000000
  0.363636  0.111111  0.285714      4.000000
  0.454545  0.111111  0.285714      4.000000
 -0.454545  0.111111  0.285714      4.000000
 -0.363636  0.111111  0.285714      4.000000
 -0.272727  0.111111  0.285714      4.000000
 -0.181818  0.111111  0.285714      4.000000
 -0.090909  0.111111  0.285714      4.000000
  0.000000  0.166667  0.285714      4.000000
  0.090909  0.166667  0.285714      4.000000
  0.181818  0.166667  0.285714      4.000000
  0.272727  0.166667  0.285714      4.000000
  0.363636  0.166667  0.285714      4.000000
  0.454545  0.166667  0.285714      4.000000
 -0.454545  0.166667  0.285714      4.000000
 -0.363636  0.166667  0.285714      4.000000
 -0.272727  0.166667  0.285714      4.000000
 -0.181818  0.166667  0.285714      4.000000
 -0.090909  0.166667  0.285714      4.000000
  0.000000  0.222222  0.285714      4.000000
  0.090909  0.222222  0.285714      4.000000
  0.181818  0.222222  0.285714      4.000000
  0.272727  0.222222  0.285714      4.000000
  0.363636  0.222222  0.285714      4.000000
  0.454545  0.222222  0.285714      4.000000
 -0.454545  0.222222  0.285714      4.000000
 -0.363636  0.222222  0.285714      4.000000
 -0.272727  0.222222  0.285714      4.000000
 -0.181818  0.222222  0.285714      4.000000
 -0.090909  0.222222  0.285714      4.000000
  0.000000  0.277778  0.285714      4.000000
  0.090909  0.277778  0.285714      4.000000
  0.181818  0.277778  0.285714      4.000000
  0.272727  0.277778  0.285714      4.000000
  0.363636  0.277778  0.285714      4.000000
  0.454545  0.277778  0.285714      4.000000
 -0.454545  0.277778  0.285714      4.000000
 -0.363636  0.277778  0.285714      4.000000
 -0.272727  0.277778  0.285714      4.000000
 -0.181818  0.277778  0.285714      4.000000
 -0.090909  0.277778  0.285714      4.000000
  0.000000  0.333333  0.285714      4.000000
  0.090909  0.333333  0.285714      4.000000
  0.181818  0.333333  0.285714      4.000000
  0.272727  0.333333  0.285714      4.000000
  0.363636  0.333333  0.285714      4.000000
  0.454545  0.333333  0.285714      4.000000
 -0.454545  0.333333  0.285714      4.000000
 -0.363636  0.333333  0.285714      4.000000
 -0.272727  0.333333  0.285714      4.000000
 -0.181818  0.333333  0.285714      4.000000
 -0.090909  0.333333  0.285714      4.000000
  0.000000  0.388889  0.285714      4.000000
  0.090909  0.388889  0.285714      4.000000
  0.181818  0.388889  0.285714      4.000000
  0.272727  0.388889  0.285714      4.000000
  0.363636  0.388889  0.285714      4.000000
  0.454545  0.388889  0.285714      4.000000
 -0.454545  0.388889  0.285714      4.000000
 -0.363636  0.388889  0.285714      4.000000
 -0.272727  0.388889  0.285714      4.000000
 -0.181818  0.388889  0.285714      4.000000
 -0.090909  0.388889  0.285714      4.000000
  0.000000  0.444444  0.285714      4.000000
  0.090909  0.444444  0.285714      4.000000
  0.181818  0.444444  0.285714      4.000000
  0.272727  0.444444  0.285714      4.000000
  0.363636  0.444444  0.285714      4.000000
  0.454545  0.444444  0.285714      4.000000
 -0.454545  0.444444  0.285714      4.000000
 -0.363636  0.444444  0.285714      4.000000
 -0.272727  0.444444  0.285714      4.000000
 -0.181818  0.444444  0.285714      4.000000
 -0.090909  0.444444  0.285714      4.000000
  0.000000  0.500000  0.285714      2.000000
  0.090909  0.500000  0.285714      2.000000
  0.181818  0.500000  0.285714      2.000000
  0.272727  0.500000  0.285714      2.000000
  0.363636  0.500000  0.285714      2.000000
  0.454545  0.500000  0.285714      2.000000
 -0.454545  0.500000  0.285714      2.000000
 -0.363636  0.500000  0.285714      2.000000
 -0.272727  0.500000  0.285714      2.000000
 -0.181818  0.500000  0.285714      2.000000
 -0.090909  0.500000  0.285714      2.000000
  0.000000  0.000000  0.428571      2.000000
  0.090909  0.000000  0.428571      2.000000
  0.181818  0.000000  0.428571      2.000000
  0.272727  0.000000  0.428571      2.000000
  0.363636  0.000000  0.428571      2.000000
  0.454545  0.000000  0.428571      2.000000
 -0.454545  0.000000  0.428571      2.000000
 -0.363636  0.000000  0.428571      2.000000
 -0.272727  0.000000  0.428571      2.000000
 -0.181818  0.000000  0.428571      2.000000
 -0.090909  0.000000  0.428571      2.000000
  0.000000  0.055556  0.428571      4.000000
  0.090909  0.055556  0.428571      4.000000
  0.181818  0.055556  0.428571      4.000000
  0.272727  0.055556  0.428571      4.000000
  0.363636  0.055556  0.428571      4.000000
  0.454545  0.055556  0.428571      4.000000
 -0.454545  0.055556  0.428571      4.000000
 -0.363636  0.055556  0.428571      4.000000
 -0.272727  0.055556  0.428571      4.000000
 -0.181818  0.055556  0.428571      4.000000
 -0.090909  0.055556  0.428571      4.000000
  0.000000  0.111111  0.428571      4.000000
  0.090909  0.111111  0.428571      4.000000
  0.181818  0.111111  0.428571      4.000000
  0.272727  0.111111  0.428571      4.000000
  0.363636  0.111111  0.428571      4.000000
  0.454545  0.111111  0.428571      4.000000
 -0.454545  0.111111  0.428571      4.000000
 -0.363636  0.111111  0.428571      4.000000
 -0.272727  0.111111  0.428571      4.000000
 -0.181818  0.111111  0.428571      4.000000
 -0.090909  0.111111  0.428571      4.000000
  0.000000  0.166667  0.428571      4.000000
  0.090909  0.166667  0.428571      4.000000
  0.181818  0.166667  0.428571      4.000000
  0.272727  0.166667  0.428571      4.000000
  0.363636  0.166667  0.428571      4.000000
  0.454545  0.166667  0.428571      4.000000
 -0.454545  0.166667  0.428571      4.000000
 -0.363636  0.166667  0.428571      4.000000
 -0.272727  0.166667  0.428571      4.000000
 -0.181818  0.166667  0.428571      4.000000
 -0.090909  0.166667  0.428571      4.000000
  0.000000  0.222222  0.428571      4.000000
  0.090909  0.222222  0.428571      4.000000
  0.181818  0.222222  0.428571      4.000000
  0.272727  0.222222  0.428571      4.000000
  0.363636  0.222222  0.428571      4.000000
  0.454545  0.222222  0.428571      4.000000
 -0.454545  0.222222  0.428571      4.000000
 -0.363636  0.222222  0.428571      4.000000
 -0.272727  0.222222  0.428571      4.000000
 -0.181818  0.222222  0.428571      4.000000
 -0.090909  0.222222  0.428571      4.000000
  0.000000  0.277778  0.428571      4.000000
  0.090909  0.277778  0.428571      4.000000
  0.181818  0.277778  0.428571      4.000000
  0.272727  0.277778  0.428571      4.000000
  0.363636  0.277778  0.428571      4.000000
  0.454545  0.277778  0.428571      4.000000
 -0.454545  0.277778  0.428571      4.000000
 -0.363636  0.277778  0.428571      4.000000
 -0.272727  0.277778  0.428571      4.000000
 -0.181818  0.277778  0.428571      4.000000
 -0.090909  0.277778  0.428571      4.000000
  0.000000  0.333333  0.428571      4.000000
  0.090909  0.333333  0.428571      4.000000
  0.181818  0.333333  0.428571      4.000000
  0.272727  0.333333  0.428571      4.000000
  0.363636  0.333333  0.428571      4.000000
  0.454545  0.333333  0.428571      4.000000
 -0.454545  0.333333  0.428571      4.000000
 -0.363636  0.333333  0.428571      4.000000
 -0.272727  0.333333  0.428571      4.000000
 -0.181818  0.333333  0.428571      4.000000
 -0.090909  0.333333  0.428571      4.000000
  0.000000  0.388889  0.428571      4.000000
  0.090909  0.388889  0.428571      4.000000
  0.181818  0.388889  0.428571      4.000000
  0.272727  0.388889  0.428571      4.000000
  0.363636  0.388889  0.428571      4.000000
  0.454545  0.388889  0.428571      4.000000
 -0.454545  0.388889  0.428571      4.000000
 -0.363636  0.388889  0.428571      4.000000
 -0.272727  0.388889  0.428571      4.000000
 -0.181818  0.388889  0.428571      4.000000
 -0.090909  0.388889  0.428571      4.000000
  0.000000  0.444444  0.428571      4.000000
  0.090909  0.444444  0.428571      4.000000
  0.181818  0.444444  0.428571      4.000000
  0.272727  0.444444  0.428571      4.000000
  0.363636  0.444444  0.428571      4.000000
  0.454545  0.444444  0.428571      4.000000
 -0.454545  0.444444  0.428571      4.000000
 -0.363636  0.444444  0.428571      4.000000
 -0.272727  0.444444  0.428571      4.000000
 -0.181818  0.444444  0.428571      4.000000
 -0.090909  0.444444  0.428571      4.000000
  0.000000  0.500000  0.428571      2.000000
  0.090909  0.500000  0.428571      2.000000
  0.181818  0.500000  0.428571      2.000000
  0.272727  0.500000  0.428571      2.000000
  0.363636  0.500000  0.428571      2.000000
  0.454545  0.500000  0.428571      2.000000
 -0.454545  0.500000  0.428571      2.000000
 -0.363636  0.500000  0.428571      2.000000
 -0.272727  0.500000  0.428571      2.000000
 -0.181818  0.500000  0.428571      2.000000
 -0.090909  0.500000  0.428571      2.000000
 
 Following cartesian coordinates:
            Coordinates               Weight
  0.000000  0.000000  0.000000      1.000000
  0.018710  0.000000  0.000000      2.000000
  0.037420  0.000000  0.000000      2.000000
  0.056129  0.000000  0.000000      2.000000
  0.074839  0.000000  0.000000      2.000000
  0.093549  0.000000  0.000000      2.000000
  0.000000  0.020208  0.000000      2.000000
  0.018710  0.020208  0.000000      4.000000
  0.037420  0.020208  0.000000      4.000000
  0.056129  0.020208  0.000000      4.000000
  0.074839  0.020208  0.000000      4.000000
  0.093549  0.020208  0.000000      4.000000
  0.000000  0.040416  0.000000      2.000000
  0.018710  0.040416  0.000000      4.000000
  0.037420  0.040416  0.000000      4.000000
  0.056129  0.040416  0.000000      4.000000
  0.074839  0.040416  0.000000      4.000000
  0.093549  0.040416  0.000000      4.000000
  0.000000  0.060624  0.000000      2.000000
  0.018710  0.060624  0.000000      4.000000
  0.037420  0.060624  0.000000      4.000000
  0.056129  0.060624  0.000000      4.000000
  0.074839  0.060624  0.000000      4.000000
  0.093549  0.060624  0.000000      4.000000
  0.000000  0.080832  0.000000      2.000000
  0.018710  0.080832  0.000000      4.000000
  0.037420  0.080832  0.000000      4.000000
  0.056129  0.080832  0.000000      4.000000
  0.074839  0.080832  0.000000      4.000000
  0.093549  0.080832  0.000000      4.000000
  0.000000  0.101040  0.000000      2.000000
  0.018710  0.101040  0.000000      4.000000
  0.037420  0.101040  0.000000      4.000000
  0.056129  0.101040  0.000000      4.000000
  0.074839  0.101040  0.000000      4.000000
  0.093549  0.101040  0.000000      4.000000
  0.000000  0.121248  0.000000      2.000000
  0.018710  0.121248  0.000000      4.000000
  0.037420  0.121248  0.000000      4.000000
  0.056129  0.121248  0.000000      4.000000
  0.074839  0.121248  0.000000      4.000000
  0.093549  0.121248  0.000000      4.000000
  0.000000  0.141456  0.000000      2.000000
  0.018710  0.141456  0.000000      4.000000
  0.037420  0.141456  0.000000      4.000000
  0.056129  0.141456  0.000000      4.000000
  0.074839  0.141456  0.000000      4.000000
  0.093549  0.141456  0.000000      4.000000
  0.000000  0.161664  0.000000      2.000000
  0.018710  0.161664  0.000000      4.000000
  0.037420  0.161664  0.000000      4.000000
  0.056129  0.161664  0.000000      4.000000
  0.074839  0.161664  0.000000      4.000000
  0.093549  0.161664  0.000000      4.000000
  0.000000  0.181872  0.000000      1.000000
  0.018710  0.181872  0.000000      2.000000
  0.037420  0.181872  0.000000      2.000000
  0.056129  0.181872  0.000000      2.000000
  0.074839  0.181872  0.000000      2.000000
  0.093549  0.181872  0.000000      2.000000
  0.000000  0.000000  0.020790      2.000000
  0.018710  0.000000  0.020790      2.000000
  0.037420  0.000000  0.020790      2.000000
  0.056129  0.000000  0.020790      2.000000
  0.074839  0.000000  0.020790      2.000000
  0.093549  0.000000  0.020790      2.000000
 -0.093549  0.000000  0.020790      2.000000
 -0.074839  0.000000  0.020790      2.000000
 -0.056129  0.000000  0.020790      2.000000
 -0.037420  0.000000  0.020790      2.000000
 -0.018710  0.000000  0.020790      2.000000
  0.000000  0.020208  0.020790      4.000000
  0.018710  0.020208  0.020790      4.000000
  0.037420  0.020208  0.020790      4.000000
  0.056129  0.020208  0.020790      4.000000
  0.074839  0.020208  0.020790      4.000000
  0.093549  0.020208  0.020790      4.000000
 -0.093549  0.020208  0.020790      4.000000
 -0.074839  0.020208  0.020790      4.000000
 -0.056129  0.020208  0.020790      4.000000
 -0.037420  0.020208  0.020790      4.000000
 -0.018710  0.020208  0.020790      4.000000
  0.000000  0.040416  0.020790      4.000000
  0.018710  0.040416  0.020790      4.000000
  0.037420  0.040416  0.020790      4.000000
  0.056129  0.040416  0.020790      4.000000
  0.074839  0.040416  0.020790      4.000000
  0.093549  0.040416  0.020790      4.000000
 -0.093549  0.040416  0.020790      4.000000
 -0.074839  0.040416  0.020790      4.000000
 -0.056129  0.040416  0.020790      4.000000
 -0.037420  0.040416  0.020790      4.000000
 -0.018710  0.040416  0.020790      4.000000
  0.000000  0.060624  0.020790      4.000000
  0.018710  0.060624  0.020790      4.000000
  0.037420  0.060624  0.020790      4.000000
  0.056129  0.060624  0.020790      4.000000
  0.074839  0.060624  0.020790      4.000000
  0.093549  0.060624  0.020790      4.000000
 -0.093549  0.060624  0.020790      4.000000
 -0.074839  0.060624  0.020790      4.000000
 -0.056129  0.060624  0.020790      4.000000
 -0.037420  0.060624  0.020790      4.000000
 -0.018710  0.060624  0.020790      4.000000
  0.000000  0.080832  0.020790      4.000000
  0.018710  0.080832  0.020790      4.000000
  0.037420  0.080832  0.020790      4.000000
  0.056129  0.080832  0.020790      4.000000
  0.074839  0.080832  0.020790      4.000000
  0.093549  0.080832  0.020790      4.000000
 -0.093549  0.080832  0.020790      4.000000
 -0.074839  0.080832  0.020790      4.000000
 -0.056129  0.080832  0.020790      4.000000
 -0.037420  0.080832  0.020790      4.000000
 -0.018710  0.080832  0.020790      4.000000
  0.000000  0.101040  0.020790      4.000000
  0.018710  0.101040  0.020790      4.000000
  0.037420  0.101040  0.020790      4.000000
  0.056129  0.101040  0.020790      4.000000
  0.074839  0.101040  0.020790      4.000000
  0.093549  0.101040  0.020790      4.000000
 -0.093549  0.101040  0.020790      4.000000
 -0.074839  0.101040  0.020790      4.000000
 -0.056129  0.101040  0.020790      4.000000
 -0.037420  0.101040  0.020790      4.000000
 -0.018710  0.101040  0.020790      4.000000
  0.000000  0.121248  0.020790      4.000000
  0.018710  0.121248  0.020790      4.000000
  0.037420  0.121248  0.020790      4.000000
  0.056129  0.121248  0.020790      4.000000
  0.074839  0.121248  0.020790      4.000000
  0.093549  0.121248  0.020790      4.000000
 -0.093549  0.121248  0.020790      4.000000
 -0.074839  0.121248  0.020790      4.000000
 -0.056129  0.121248  0.020790      4.000000
 -0.037420  0.121248  0.020790      4.000000
 -0.018710  0.121248  0.020790      4.000000
  0.000000  0.141456  0.020790      4.000000
  0.018710  0.141456  0.020790      4.000000
  0.037420  0.141456  0.020790      4.000000
  0.056129  0.141456  0.020790      4.000000
  0.074839  0.141456  0.020790      4.000000
  0.093549  0.141456  0.020790      4.000000
 -0.093549  0.141456  0.020790      4.000000
 -0.074839  0.141456  0.020790      4.000000
 -0.056129  0.141456  0.020790      4.000000
 -0.037420  0.141456  0.020790      4.000000
 -0.018710  0.141456  0.020790      4.000000
  0.000000  0.161664  0.020790      4.000000
  0.018710  0.161664  0.020790      4.000000
  0.037420  0.161664  0.020790      4.000000
  0.056129  0.161664  0.020790      4.000000
  0.074839  0.161664  0.020790      4.000000
  0.093549  0.161664  0.020790      4.000000
 -0.093549  0.161664  0.020790      4.000000
 -0.074839  0.161664  0.020790      4.000000
 -0.056129  0.161664  0.020790      4.000000
 -0.037420  0.161664  0.020790      4.000000
 -0.018710  0.161664  0.020790      4.000000
  0.000000  0.181872  0.020790      2.000000
  0.018710  0.181872  0.020790      2.000000
  0.037420  0.181872  0.020790      2.000000
  0.056129  0.181872  0.020790      2.000000
  0.074839  0.181872  0.020790      2.000000
  0.093549  0.181872  0.020790      2.000000
 -0.093549  0.181872  0.020790      2.000000
 -0.074839  0.181872  0.020790      2.000000
 -0.056129  0.181872  0.020790      2.000000
 -0.037420  0.181872  0.020790      2.000000
 -0.018710  0.181872  0.020790      2.000000
  0.000000  0.000000  0.041580      2.000000
  0.018710  0.000000  0.041580      2.000000
  0.037420  0.000000  0.041580      2.000000
  0.056129  0.000000  0.041580      2.000000
  0.074839  0.000000  0.041580      2.000000
  0.093549  0.000000  0.041580      2.000000
 -0.093549  0.000000  0.041580      2.000000
 -0.074839  0.000000  0.041580      2.000000
 -0.056129  0.000000  0.041580      2.000000
 -0.037420  0.000000  0.041580      2.000000
 -0.018710  0.000000  0.041580      2.000000
  0.000000  0.020208  0.041580      4.000000
  0.018710  0.020208  0.041580      4.000000
  0.037420  0.020208  0.041580      4.000000
  0.056129  0.020208  0.041580      4.000000
  0.074839  0.020208  0.041580      4.000000
  0.093549  0.020208  0.041580      4.000000
 -0.093549  0.020208  0.041580      4.000000
 -0.074839  0.020208  0.041580      4.000000
 -0.056129  0.020208  0.041580      4.000000
 -0.037420  0.020208  0.041580      4.000000
 -0.018710  0.020208  0.041580      4.000000
  0.000000  0.040416  0.041580      4.000000
  0.018710  0.040416  0.041580      4.000000
  0.037420  0.040416  0.041580      4.000000
  0.056129  0.040416  0.041580      4.000000
  0.074839  0.040416  0.041580      4.000000
  0.093549  0.040416  0.041580      4.000000
 -0.093549  0.040416  0.041580      4.000000
 -0.074839  0.040416  0.041580      4.000000
 -0.056129  0.040416  0.041580      4.000000
 -0.037420  0.040416  0.041580      4.000000
 -0.018710  0.040416  0.041580      4.000000
  0.000000  0.060624  0.041580      4.000000
  0.018710  0.060624  0.041580      4.000000
  0.037420  0.060624  0.041580      4.000000
  0.056129  0.060624  0.041580      4.000000
  0.074839  0.060624  0.041580      4.000000
  0.093549  0.060624  0.041580      4.000000
 -0.093549  0.060624  0.041580      4.000000
 -0.074839  0.060624  0.041580      4.000000
 -0.056129  0.060624  0.041580      4.000000
 -0.037420  0.060624  0.041580      4.000000
 -0.018710  0.060624  0.041580      4.000000
  0.000000  0.080832  0.041580      4.000000
  0.018710  0.080832  0.041580      4.000000
  0.037420  0.080832  0.041580      4.000000
  0.056129  0.080832  0.041580      4.000000
  0.074839  0.080832  0.041580      4.000000
  0.093549  0.080832  0.041580      4.000000
 -0.093549  0.080832  0.041580      4.000000
 -0.074839  0.080832  0.041580      4.000000
 -0.056129  0.080832  0.041580      4.000000
 -0.037420  0.080832  0.041580      4.000000
 -0.018710  0.080832  0.041580      4.000000
  0.000000  0.101040  0.041580      4.000000
  0.018710  0.101040  0.041580      4.000000
  0.037420  0.101040  0.041580      4.000000
  0.056129  0.101040  0.041580      4.000000
  0.074839  0.101040  0.041580      4.000000
  0.093549  0.101040  0.041580      4.000000
 -0.093549  0.101040  0.041580      4.000000
 -0.074839  0.101040  0.041580      4.000000
 -0.056129  0.101040  0.041580      4.000000
 -0.037420  0.101040  0.041580      4.000000
 -0.018710  0.101040  0.041580      4.000000
  0.000000  0.121248  0.041580      4.000000
  0.018710  0.121248  0.041580      4.000000
  0.037420  0.121248  0.041580      4.000000
  0.056129  0.121248  0.041580      4.000000
  0.074839  0.121248  0.041580      4.000000
  0.093549  0.121248  0.041580      4.000000
 -0.093549  0.121248  0.041580      4.000000
 -0.074839  0.121248  0.041580      4.000000
 -0.056129  0.121248  0.041580      4.000000
 -0.037420  0.121248  0.041580      4.000000
 -0.018710  0.121248  0.041580      4.000000
  0.000000  0.141456  0.041580      4.000000
  0.018710  0.141456  0.041580      4.000000
  0.037420  0.141456  0.041580      4.000000
  0.056129  0.141456  0.041580      4.000000
  0.074839  0.141456  0.041580      4.000000
  0.093549  0.141456  0.041580      4.000000
 -0.093549  0.141456  0.041580      4.000000
 -0.074839  0.141456  0.041580      4.000000
 -0.056129  0.141456  0.041580      4.000000
 -0.037420  0.141456  0.041580      4.000000
 -0.018710  0.141456  0.041580      4.000000
  0.000000  0.161664  0.041580      4.000000
  0.018710  0.161664  0.041580      4.000000
  0.037420  0.161664  0.041580      4.000000
  0.056129  0.161664  0.041580      4.000000
  0.074839  0.161664  0.041580      4.000000
  0.093549  0.161664  0.041580      4.000000
 -0.093549  0.161664  0.041580      4.000000
 -0.074839  0.161664  0.041580      4.000000
 -0.056129  0.161664  0.041580      4.000000
 -0.037420  0.161664  0.041580      4.000000
 -0.018710  0.161664  0.041580      4.000000
  0.000000  0.181872  0.041580      2.000000
  0.018710  0.181872  0.041580      2.000000
  0.037420  0.181872  0.041580      2.000000
  0.056129  0.181872  0.041580      2.000000
  0.074839  0.181872  0.041580      2.000000
  0.093549  0.181872  0.041580      2.000000
 -0.093549  0.181872  0.041580      2.000000
 -0.074839  0.181872  0.041580      2.000000
 -0.056129  0.181872  0.041580      2.000000
 -0.037420  0.181872  0.041580      2.000000
 -0.018710  0.181872  0.041580      2.000000
  0.000000  0.000000  0.062369      2.000000
  0.018710  0.000000  0.062369      2.000000
  0.037420  0.000000  0.062369      2.000000
  0.056129  0.000000  0.062369      2.000000
  0.074839  0.000000  0.062369      2.000000
  0.093549  0.000000  0.062369      2.000000
 -0.093549  0.000000  0.062369      2.000000
 -0.074839  0.000000  0.062369      2.000000
 -0.056129  0.000000  0.062369      2.000000
 -0.037420  0.000000  0.062369      2.000000
 -0.018710  0.000000  0.062369      2.000000
  0.000000  0.020208  0.062369      4.000000
  0.018710  0.020208  0.062369      4.000000
  0.037420  0.020208  0.062369      4.000000
  0.056129  0.020208  0.062369      4.000000
  0.074839  0.020208  0.062369      4.000000
  0.093549  0.020208  0.062369      4.000000
 -0.093549  0.020208  0.062369      4.000000
 -0.074839  0.020208  0.062369      4.000000
 -0.056129  0.020208  0.062369      4.000000
 -0.037420  0.020208  0.062369      4.000000
 -0.018710  0.020208  0.062369      4.000000
  0.000000  0.040416  0.062369      4.000000
  0.018710  0.040416  0.062369      4.000000
  0.037420  0.040416  0.062369      4.000000
  0.056129  0.040416  0.062369      4.000000
  0.074839  0.040416  0.062369      4.000000
  0.093549  0.040416  0.062369      4.000000
 -0.093549  0.040416  0.062369      4.000000
 -0.074839  0.040416  0.062369      4.000000
 -0.056129  0.040416  0.062369      4.000000
 -0.037420  0.040416  0.062369      4.000000
 -0.018710  0.040416  0.062369      4.000000
  0.000000  0.060624  0.062369      4.000000
  0.018710  0.060624  0.062369      4.000000
  0.037420  0.060624  0.062369      4.000000
  0.056129  0.060624  0.062369      4.000000
  0.074839  0.060624  0.062369      4.000000
  0.093549  0.060624  0.062369      4.000000
 -0.093549  0.060624  0.062369      4.000000
 -0.074839  0.060624  0.062369      4.000000
 -0.056129  0.060624  0.062369      4.000000
 -0.037420  0.060624  0.062369      4.000000
 -0.018710  0.060624  0.062369      4.000000
  0.000000  0.080832  0.062369      4.000000
  0.018710  0.080832  0.062369      4.000000
  0.037420  0.080832  0.062369      4.000000
  0.056129  0.080832  0.062369      4.000000
  0.074839  0.080832  0.062369      4.000000
  0.093549  0.080832  0.062369      4.000000
 -0.093549  0.080832  0.062369      4.000000
 -0.074839  0.080832  0.062369      4.000000
 -0.056129  0.080832  0.062369      4.000000
 -0.037420  0.080832  0.062369      4.000000
 -0.018710  0.080832  0.062369      4.000000
  0.000000  0.101040  0.062369      4.000000
  0.018710  0.101040  0.062369      4.000000
  0.037420  0.101040  0.062369      4.000000
  0.056129  0.101040  0.062369      4.000000
  0.074839  0.101040  0.062369      4.000000
  0.093549  0.101040  0.062369      4.000000
 -0.093549  0.101040  0.062369      4.000000
 -0.074839  0.101040  0.062369      4.000000
 -0.056129  0.101040  0.062369      4.000000
 -0.037420  0.101040  0.062369      4.000000
 -0.018710  0.101040  0.062369      4.000000
  0.000000  0.121248  0.062369      4.000000
  0.018710  0.121248  0.062369      4.000000
  0.037420  0.121248  0.062369      4.000000
  0.056129  0.121248  0.062369      4.000000
  0.074839  0.121248  0.062369      4.000000
  0.093549  0.121248  0.062369      4.000000
 -0.093549  0.121248  0.062369      4.000000
 -0.074839  0.121248  0.062369      4.000000
 -0.056129  0.121248  0.062369      4.000000
 -0.037420  0.121248  0.062369      4.000000
 -0.018710  0.121248  0.062369      4.000000
  0.000000  0.141456  0.062369      4.000000
  0.018710  0.141456  0.062369      4.000000
  0.037420  0.141456  0.062369      4.000000
  0.056129  0.141456  0.062369      4.000000
  0.074839  0.141456  0.062369      4.000000
  0.093549  0.141456  0.062369      4.000000
 -0.093549  0.141456  0.062369      4.000000
 -0.074839  0.141456  0.062369      4.000000
 -0.056129  0.141456  0.062369      4.000000
 -0.037420  0.141456  0.062369      4.000000
 -0.018710  0.141456  0.062369      4.000000
  0.000000  0.161664  0.062369      4.000000
  0.018710  0.161664  0.062369      4.000000
  0.037420  0.161664  0.062369      4.000000
  0.056129  0.161664  0.062369      4.000000
  0.074839  0.161664  0.062369      4.000000
  0.093549  0.161664  0.062369      4.000000
 -0.093549  0.161664  0.062369      4.000000
 -0.074839  0.161664  0.062369      4.000000
 -0.056129  0.161664  0.062369      4.000000
 -0.037420  0.161664  0.062369      4.000000
 -0.018710  0.161664  0.062369      4.000000
  0.000000  0.181872  0.062369      2.000000
  0.018710  0.181872  0.062369      2.000000
  0.037420  0.181872  0.062369      2.000000
  0.056129  0.181872  0.062369      2.000000
  0.074839  0.181872  0.062369      2.000000
  0.093549  0.181872  0.062369      2.000000
 -0.093549  0.181872  0.062369      2.000000
 -0.074839  0.181872  0.062369      2.000000
 -0.056129  0.181872  0.062369      2.000000
 -0.037420  0.181872  0.062369      2.000000
 -0.018710  0.181872  0.062369      2.000000
 


--------------------------------------------------------------------------------------------------------




 Dimension of arrays:
   k-points           NKPTS =    390   k-points in BZ     NKDIM =    390   number of bands    NBANDS=     36
   number of dos      NEDOS =    301   number of ions     NIONS =      6
   non local maximal  LDIM  =      6   non local SUM 2l+1 LMDIM =     18
   total plane-waves  NPLWV =  51840
   max r-space proj   IRMAX =      1   max aug-charges    IRDMAX=   4633
   dimension x,y,z NGX =    40 NGY =   24 NGZ =   54
   dimension x,y,z NGXF=    40 NGYF=   24 NGZF=   56
   support grid    NGXF=    40 NGYF=   24 NGZF=   56
   ions per type =               6
   NGX,Y,Z   is equivalent  to a cutoff of  13.69, 14.51, 13.06 a.u.
   NGXF,Y,Z  is equivalent  to a cutoff of  13.69, 14.51, 13.55 a.u.

 SYSTEM =  unknown system                          
 POSCAR =  Pt                                      

 Startparameter for this run:
   NWRITE =      0    write-flag & timer
   PREC   = h         normal or accurate (medium, high low for compatibility)
   ISTART =      0    job   : 0-new  1-cont  2-samecut
   ICHARG =      2    charge: 1-file 2-atom 10-const
   ISPIN  =      1    spin polarized calculation?
   LNONCOLLINEAR =      F non collinear calculations
   LSORBIT =      F    spin-orbit coupling
   INIWAV =      1    electr: 0-lowe 1-rand  2-diag
   LASPH  =      F    aspherical Exc in radial PAW
   METAGGA=      F    non-selfconsistent MetaGGA calc.

 Electronic Relaxation 1
   ENCUT  =  550.0 eV  40.42 Ry    6.36 a.u.   9.29  5.26 13.14*2*pi/ulx,y,z
   ENINI  =  550.0     initial cutoff
   ENAUG  =  359.0 eV  augmentation charge cutoff
   NELM   =     60;   NELMIN=  2; NELMDL= -5     # of ELM steps 
   EDIFF  = 0.1E-05   stopping-criterion for ELM
   LREAL  =      F    real-space projection
   NLSPLINE    = F    spline interpolate recip. space projectors
   LCOMPAT=      F    compatible to vasp.4.4
   GGA_COMPAT  = T    GGA compatible to vasp.4.4-vasp.4.6
   LMAXPAW     = -100 max onsite density
   LMAXMIX     =    2 max onsite mixed and CHGCAR
   VOSKOWN=      0    Vosko Wilk Nusair interpolation
   ROPT   =    0.00000
 Ionic relaxation
   EDIFFG = -.1E-01   stopping-criterion for IOM
   NSW    =    200    number of steps for IOM
   NBLOCK =      1;   KBLOCK =    200    inner block; outer block 
   IBRION =      1    ionic relax: 0-MD 1-quasi-New 2-CG
   NFREE  =      0    steps in history (QN), initial steepest desc. (CG)
   ISIF   =      3    stress and relaxation
   IWAVPR =     11    prediction:  0-non 1-charg 2-wave 3-comb
   ISYM   =      2    0-nonsym 1-usesym 2-fastsym
   LCORR  =      T    Harris-Foulkes like correction to forces

   POTIM  = 0.1000    time-step for ionic-motion
   TEIN   =    0.0    initial temperature
   TEBEG  =    0.0;   TEEND  =   0.0 temperature during run
   SMASS  =  -3.00    Nose mass-parameter (am)
   estimated Nose-frequenzy (Omega)   =  0.10E-29 period in steps =****** mass=  -0.540E-27a.u.
   SCALEE = 1.0000    scale energy and forces
   NPACO  =    256;   APACO  = 16.0  distance and # of slots for P.C.
   PSTRESS=    0.0 pullay stress

  Mass of Ions in am
   POMASS = 195.08
  Ionic Valenz
   ZVAL   =  10.00
  Atomic Wigner-Seitz radii
   RWIGS  =  -1.00
  virtual crystal weights 
   VCA    =   1.00
   NELECT =      60.0000    total number of electrons
   NUPDOWN=      -1.0000    fix difference up-down

 DOS related values:
   EMIN   =  10.00;   EMAX   =-10.00  energy-range for DOS
   EFERMI =   0.00
   ISMEAR =     1;   SIGMA  =   0.10  broadening in eV -4-tet -1-fermi 0-gaus

 Electronic relaxation 2 (details)
   IALGO  =     68    algorithm
   LDIAG  =      T    sub-space diagonalisation (order eigenvalues)
   LSUBROT=      F    optimize rotation matrix (better conditioning)
   TURBO    =      0    0=normal 1=particle mesh
   IRESTART =      0    0=no restart 2=restart with 2 vectors
   NREBOOT  =      0    no. of reboots
   NMIN     =      0    reboot dimension
   EREF     =   0.00    reference energy to select bands
   IMIX   =      4    mixing-type and parameters
     AMIX     =   0.40;   BMIX     =  1.00
     AMIX_MAG =   1.60;   BMIX_MAG =  1.00
     AMIN     =   0.10
     WC   =   100.;   INIMIX=   1;  MIXPRE=   1;  MAXMIX= -45

 Intra band minimization:
   WEIMIN = 0.0010     energy-eigenvalue tresh-hold
   EBREAK =  0.69E-08  absolut break condition
   DEPER  =   0.30     relativ break condition  

   TIME   =   0.40     timestep for ELM

  volume/ion in A,a.u.               =      15.30       103.24
  Fermi-wavevector in a.u.,A,eV,Ry     =   1.420782  2.684889 27.465019  2.018622
  Thomas-Fermi vector in A             =   2.541661
 
 Write flags
   LWAVE        =      F    write WAVECAR
   LDOWNSAMPLE  =      F    k-point downsampling of WAVECAR
   LCHARG       =      F    write CHGCAR
   LVTOT        =      F    write LOCPOT, total local potential
   LVHAR        =      F    write LOCPOT, Hartree potential only
   LELF         =      F    write electronic localiz. function (ELF)
   LORBIT       =      0    0 simple, 1 ext, 2 COOP (PROOUT), +10 PAW based schemes


 Dipole corrections
   LMONO  =      F    monopole corrections only (constant potential shift)
   LDIPOL =      F    correct potential (dipole corrections)
   IDIPOL =      0    1-x, 2-y, 3-z, 4-all directions 
   EPSILON=  1.0000000 bulk dielectric constant

 Exchange correlation treatment:
   GGA     =    --    GGA type
   LEXCH   =     8    internal setting for exchange type
   VOSKOWN=      0    Vosko Wilk Nusair interpolation
   LHFCALC =     F    Hartree Fock is set to
   LHFONE  =     F    Hartree Fock one center treatment
   AEXX    =    0.0000 exact exchange contribution

 Linear response parameters
   LEPSILON=     F    determine dielectric tensor
   LRPA    =     F    only Hartree local field effects (RPA)
   LNABLA  =     F    use nabla operator in PAW spheres
   LVEL    =     F    velocity operator in full k-point grid
   LINTERFAST=   F  fast interpolation
   KINTER  =     0    interpolate to denser k-point grid
   CSHIFT  =0.1000    complex shift for real part using Kramers Kronig
   OMEGAMAX=  -1.0    maximum frequency
   DEG_THRESHOLD= 0.2000000E-02 threshold for treating states as degnerate
   RTIME   =   -0.100 relaxation time in fs
  (WPLASMAI=    0.000 imaginary part of plasma frequency in eV, 0.658/RTIME)
   DFIELD  = 0.0000000 0.0000000 0.0000000 field for delta impulse in time
 
 Orbital magnetization related:
   ORBITALMAG=     F  switch on orbital magnetization
   LCHIMAG   =     F  perturbation theory with respect to B field
   DQ        =  0.001000  dq finite difference perturbation B field
   LLRAUG    =     F  two centre corrections for induced B field



--------------------------------------------------------------------------------------------------------


 quasi-Newton-method for relaxation of ions
 charge density and potential will be updated during run
 non-spin polarized calculation
 RMM-DIIS sequential band-by-band and
  variant of blocked Davidson during initial phase
 perform sub-space diagonalisation
    before iterative eigenvector-optimisation
 modified Broyden-mixing scheme, WC =      100.0
 initial mixing is a Kerker type mixing with AMIX =  0.4000 and BMIX =      1.0000
 Hartree-type preconditioning will be used
 using additional bands            6
 reciprocal scheme for non local part
 use partial core corrections
 calculate Harris-corrections to forces 
   (improved forces if not selfconsistent)
 use gradient corrections 
 use of overlap-Matrix (Vanderbilt PP)
 Methfessel and Paxton  Order N= 1 SIGMA  =   0.10


--------------------------------------------------------------------------------------------------------


  energy-cutoff  :      550.00
  volume of cell :       91.79
      direct lattice vectors                 reciprocal lattice vectors
     4.858896010  0.000000000  0.000000000     0.205808068  0.000000000  0.000000000
     0.000000000  2.749179222  0.000000000     0.000000000  0.363744929  0.000000000
     0.000000000  0.000000000  6.871516630     0.000000000  0.000000000  0.145528281

  length of vectors
     4.858896010  2.749179222  6.871516630     0.205808068  0.363744929  0.145528281


 
 k-points in units of 2pi/SCALE and weight: K-Spacing Value to Generate K-Mesh: 0.02
   0.00000000  0.00000000  0.00000000       0.001
   0.01870982  0.00000000  0.00000000       0.001
   0.03741965  0.00000000  0.00000000       0.001
   0.05612947  0.00000000  0.00000000       0.001
   0.07483930  0.00000000  0.00000000       0.001
   0.09354912  0.00000000  0.00000000       0.001
   0.00000000  0.02020805  0.00000000       0.001
   0.01870982  0.02020805  0.00000000       0.003
   0.03741965  0.02020805  0.00000000       0.003
   0.05612947  0.02020805  0.00000000       0.003
   0.07483930  0.02020805  0.00000000       0.003
   0.09354912  0.02020805  0.00000000       0.003
   0.00000000  0.04041610  0.00000000       0.001
   0.01870982  0.04041610  0.00000000       0.003
   0.03741965  0.04041610  0.00000000       0.003
   0.05612947  0.04041610  0.00000000       0.003
   0.07483930  0.04041610  0.00000000       0.003
   0.09354912  0.04041610  0.00000000       0.003
   0.00000000  0.06062415  0.00000000       0.001
   0.01870982  0.06062415  0.00000000       0.003
   0.03741965  0.06062415  0.00000000       0.003
   0.05612947  0.06062415  0.00000000       0.003
   0.07483930  0.06062415  0.00000000       0.003
   0.09354912  0.06062415  0.00000000       0.003
   0.00000000  0.08083221  0.00000000       0.001
   0.01870982  0.08083221  0.00000000       0.003
   0.03741965  0.08083221  0.00000000       0.003
   0.05612947  0.08083221  0.00000000       0.003
   0.07483930  0.08083221  0.00000000       0.003
   0.09354912  0.08083221  0.00000000       0.003
   0.00000000  0.10104026  0.00000000       0.001
   0.01870982  0.10104026  0.00000000       0.003
   0.03741965  0.10104026  0.00000000       0.003
   0.05612947  0.10104026  0.00000000       0.003
   0.07483930  0.10104026  0.00000000       0.003
   0.09354912  0.10104026  0.00000000       0.003
   0.00000000  0.12124831  0.00000000       0.001
   0.01870982  0.12124831  0.00000000       0.003
   0.03741965  0.12124831  0.00000000       0.003
   0.05612947  0.12124831  0.00000000       0.003
   0.07483930  0.12124831  0.00000000       0.003
   0.09354912  0.12124831  0.00000000       0.003
   0.00000000  0.14145636  0.00000000       0.001
   0.01870982  0.14145636  0.00000000       0.003
   0.03741965  0.14145636  0.00000000       0.003
   0.05612947  0.14145636  0.00000000       0.003
   0.07483930  0.14145636  0.00000000       0.003
   0.09354912  0.14145636  0.00000000       0.003
   0.00000000  0.16166441  0.00000000       0.001
   0.01870982  0.16166441  0.00000000       0.003
   0.03741965  0.16166441  0.00000000       0.003
   0.05612947  0.16166441  0.00000000       0.003
   0.07483930  0.16166441  0.00000000       0.003
   0.09354912  0.16166441  0.00000000       0.003
   0.00000000  0.18187246  0.00000000       0.001
   0.01870982  0.18187246  0.00000000       0.001
   0.03741965  0.18187246  0.00000000       0.001
   0.05612947  0.18187246  0.00000000       0.001
   0.07483930  0.18187246  0.00000000       0.001
   0.09354912  0.18187246  0.00000000       0.001
   0.00000000  0.00000000  0.02078975       0.001
   0.01870982  0.00000000  0.02078975       0.001
   0.03741965  0.00000000  0.02078975       0.001
   0.05612947  0.00000000  0.02078975       0.001
   0.07483930  0.00000000  0.02078975       0.001
   0.09354912  0.00000000  0.02078975       0.001
  -0.09354912  0.00000000  0.02078975       0.001
  -0.07483930  0.00000000  0.02078975       0.001
  -0.05612947  0.00000000  0.02078975       0.001
  -0.03741965  0.00000000  0.02078975       0.001
  -0.01870982  0.00000000  0.02078975       0.001
   0.00000000  0.02020805  0.02078975       0.003
   0.01870982  0.02020805  0.02078975       0.003
   0.03741965  0.02020805  0.02078975       0.003
   0.05612947  0.02020805  0.02078975       0.003
   0.07483930  0.02020805  0.02078975       0.003
   0.09354912  0.02020805  0.02078975       0.003
  -0.09354912  0.02020805  0.02078975       0.003
  -0.07483930  0.02020805  0.02078975       0.003
  -0.05612947  0.02020805  0.02078975       0.003
  -0.03741965  0.02020805  0.02078975       0.003
  -0.01870982  0.02020805  0.02078975       0.003
   0.00000000  0.04041610  0.02078975       0.003
   0.01870982  0.04041610  0.02078975       0.003
   0.03741965  0.04041610  0.02078975       0.003
   0.05612947  0.04041610  0.02078975       0.003
   0.07483930  0.04041610  0.02078975       0.003
   0.09354912  0.04041610  0.02078975       0.003
  -0.09354912  0.04041610  0.02078975       0.003
  -0.07483930  0.04041610  0.02078975       0.003
  -0.05612947  0.04041610  0.02078975       0.003
  -0.03741965  0.04041610  0.02078975       0.003
  -0.01870982  0.04041610  0.02078975       0.003
   0.00000000  0.06062415  0.02078975       0.003
   0.01870982  0.06062415  0.02078975       0.003
   0.03741965  0.06062415  0.02078975       0.003
   0.05612947  0.06062415  0.02078975       0.003
   0.07483930  0.06062415  0.02078975       0.003
   0.09354912  0.06062415  0.02078975       0.003
  -0.09354912  0.06062415  0.02078975       0.003
  -0.07483930  0.06062415  0.02078975       0.003
  -0.05612947  0.06062415  0.02078975       0.003
  -0.03741965  0.06062415  0.02078975       0.003
  -0.01870982  0.06062415  0.02078975       0.003
   0.00000000  0.08083221  0.02078975       0.003
   0.01870982  0.08083221  0.02078975       0.003
   0.03741965  0.08083221  0.02078975       0.003
   0.05612947  0.08083221  0.02078975       0.003
   0.07483930  0.08083221  0.02078975       0.003
   0.09354912  0.08083221  0.02078975       0.003
  -0.09354912  0.08083221  0.02078975       0.003
  -0.07483930  0.08083221  0.02078975       0.003
  -0.05612947  0.08083221  0.02078975       0.003
  -0.03741965  0.08083221  0.02078975       0.003
  -0.01870982  0.08083221  0.02078975       0.003
   0.00000000  0.10104026  0.02078975       0.003
   0.01870982  0.10104026  0.02078975       0.003
   0.03741965  0.10104026  0.02078975       0.003
   0.05612947  0.10104026  0.02078975       0.003
   0.07483930  0.10104026  0.02078975       0.003
   0.09354912  0.10104026  0.02078975       0.003
  -0.09354912  0.10104026  0.02078975       0.003
  -0.07483930  0.10104026  0.02078975       0.003
  -0.05612947  0.10104026  0.02078975       0.003
  -0.03741965  0.10104026  0.02078975       0.003
  -0.01870982  0.10104026  0.02078975       0.003
   0.00000000  0.12124831  0.02078975       0.003
   0.01870982  0.12124831  0.02078975       0.003
   0.03741965  0.12124831  0.02078975       0.003
   0.05612947  0.12124831  0.02078975       0.003
   0.07483930  0.12124831  0.02078975       0.003
   0.09354912  0.12124831  0.02078975       0.003
  -0.09354912  0.12124831  0.02078975       0.003
  -0.07483930  0.12124831  0.02078975       0.003
  -0.05612947  0.12124831  0.02078975       0.003
  -0.03741965  0.12124831  0.02078975       0.003
  -0.01870982  0.12124831  0.02078975       0.003
   0.00000000  0.14145636  0.02078975       0.003
   0.01870982  0.14145636  0.02078975       0.003
   0.03741965  0.14145636  0.02078975       0.003
   0.05612947  0.14145636  0.02078975       0.003
   0.07483930  0.14145636  0.02078975       0.003
   0.09354912  0.14145636  0.02078975       0.003
  -0.09354912  0.14145636  0.02078975       0.003
  -0.07483930  0.14145636  0.02078975       0.003
  -0.05612947  0.14145636  0.02078975       0.003
  -0.03741965  0.14145636  0.02078975       0.003
  -0.01870982  0.14145636  0.02078975       0.003
   0.00000000  0.16166441  0.02078975       0.003
   0.01870982  0.16166441  0.02078975       0.003
   0.03741965  0.16166441  0.02078975       0.003
   0.05612947  0.16166441  0.02078975       0.003
   0.07483930  0.16166441  0.02078975       0.003
   0.09354912  0.16166441  0.02078975       0.003
  -0.09354912  0.16166441  0.02078975       0.003
  -0.07483930  0.16166441  0.02078975       0.003
  -0.05612947  0.16166441  0.02078975       0.003
  -0.03741965  0.16166441  0.02078975       0.003
  -0.01870982  0.16166441  0.02078975       0.003
   0.00000000  0.18187246  0.02078975       0.001
   0.01870982  0.18187246  0.02078975       0.001
   0.03741965  0.18187246  0.02078975       0.001
   0.05612947  0.18187246  0.02078975       0.001
   0.07483930  0.18187246  0.02078975       0.001
   0.09354912  0.18187246  0.02078975       0.001
  -0.09354912  0.18187246  0.02078975       0.001
  -0.07483930  0.18187246  0.02078975       0.001
  -0.05612947  0.18187246  0.02078975       0.001
  -0.03741965  0.18187246  0.02078975       0.001
  -0.01870982  0.18187246  0.02078975       0.001
   0.00000000  0.00000000  0.04157951       0.001
   0.01870982  0.00000000  0.04157951       0.001
   0.03741965  0.00000000  0.04157951       0.001
   0.05612947  0.00000000  0.04157951       0.001
   0.07483930  0.00000000  0.04157951       0.001
   0.09354912  0.00000000  0.04157951       0.001
  -0.09354912  0.00000000  0.04157951       0.001
  -0.07483930  0.00000000  0.04157951       0.001
  -0.05612947  0.00000000  0.04157951       0.001
  -0.03741965  0.00000000  0.04157951       0.001
  -0.01870982  0.00000000  0.04157951       0.001
   0.00000000  0.02020805  0.04157951       0.003
   0.01870982  0.02020805  0.04157951       0.003
   0.03741965  0.02020805  0.04157951       0.003
   0.05612947  0.02020805  0.04157951       0.003
   0.07483930  0.02020805  0.04157951       0.003
   0.09354912  0.02020805  0.04157951       0.003
  -0.09354912  0.02020805  0.04157951       0.003
  -0.07483930  0.02020805  0.04157951       0.003
  -0.05612947  0.02020805  0.04157951       0.003
  -0.03741965  0.02020805  0.04157951       0.003
  -0.01870982  0.02020805  0.04157951       0.003
   0.00000000  0.04041610  0.04157951       0.003
   0.01870982  0.04041610  0.04157951       0.003
   0.03741965  0.04041610  0.04157951       0.003
   0.05612947  0.04041610  0.04157951       0.003
   0.07483930  0.04041610  0.04157951       0.003
   0.09354912  0.04041610  0.04157951       0.003
  -0.09354912  0.04041610  0.04157951       0.003
  -0.07483930  0.04041610  0.04157951       0.003
  -0.05612947  0.04041610  0.04157951       0.003
  -0.03741965  0.04041610  0.04157951       0.003
  -0.01870982  0.04041610  0.04157951       0.003
   0.00000000  0.06062415  0.04157951       0.003
   0.01870982  0.06062415  0.04157951       0.003
   0.03741965  0.06062415  0.04157951       0.003
   0.05612947  0.06062415  0.04157951       0.003
   0.07483930  0.06062415  0.04157951       0.003
   0.09354912  0.06062415  0.04157951       0.003
  -0.09354912  0.06062415  0.04157951       0.003
  -0.07483930  0.06062415  0.04157951       0.003
  -0.05612947  0.06062415  0.04157951       0.003
  -0.03741965  0.06062415  0.04157951       0.003
  -0.01870982  0.06062415  0.04157951       0.003
   0.00000000  0.08083221  0.04157951       0.003
   0.01870982  0.08083221  0.04157951       0.003
   0.03741965  0.08083221  0.04157951       0.003
   0.05612947  0.08083221  0.04157951       0.003
   0.07483930  0.08083221  0.04157951       0.003
   0.09354912  0.08083221  0.04157951       0.003
  -0.09354912  0.08083221  0.04157951       0.003
  -0.07483930  0.08083221  0.04157951       0.003
  -0.05612947  0.08083221  0.04157951       0.003
  -0.03741965  0.08083221  0.04157951       0.003
  -0.01870982  0.08083221  0.04157951       0.003
   0.00000000  0.10104026  0.04157951       0.003
   0.01870982  0.10104026  0.04157951       0.003
   0.03741965  0.10104026  0.04157951       0.003
   0.05612947  0.10104026  0.04157951       0.003
   0.07483930  0.10104026  0.04157951       0.003
   0.09354912  0.10104026  0.04157951       0.003
  -0.09354912  0.10104026  0.04157951       0.003
  -0.07483930  0.10104026  0.04157951       0.003
  -0.05612947  0.10104026  0.04157951       0.003
  -0.03741965  0.10104026  0.04157951       0.003
  -0.01870982  0.10104026  0.04157951       0.003
   0.00000000  0.12124831  0.04157951       0.003
   0.01870982  0.12124831  0.04157951       0.003
   0.03741965  0.12124831  0.04157951       0.003
   0.05612947  0.12124831  0.04157951       0.003
   0.07483930  0.12124831  0.04157951       0.003
   0.09354912  0.12124831  0.04157951       0.003
  -0.09354912  0.12124831  0.04157951       0.003
  -0.07483930  0.12124831  0.04157951       0.003
  -0.05612947  0.12124831  0.04157951       0.003
  -0.03741965  0.12124831  0.04157951       0.003
  -0.01870982  0.12124831  0.04157951       0.003
   0.00000000  0.14145636  0.04157951       0.003
   0.01870982  0.14145636  0.04157951       0.003
   0.03741965  0.14145636  0.04157951       0.003
   0.05612947  0.14145636  0.04157951       0.003
   0.07483930  0.14145636  0.04157951       0.003
   0.09354912  0.14145636  0.04157951       0.003
  -0.09354912  0.14145636  0.04157951       0.003
  -0.07483930  0.14145636  0.04157951       0.003
  -0.05612947  0.14145636  0.04157951       0.003
  -0.03741965  0.14145636  0.04157951       0.003
  -0.01870982  0.14145636  0.04157951       0.003
   0.00000000  0.16166441  0.04157951       0.003
   0.01870982  0.16166441  0.04157951       0.003
   0.03741965  0.16166441  0.04157951       0.003
   0.05612947  0.16166441  0.04157951       0.003
   0.07483930  0.16166441  0.04157951       0.003
   0.09354912  0.16166441  0.04157951       0.003
  -0.09354912  0.16166441  0.04157951       0.003
  -0.07483930  0.16166441  0.04157951       0.003
  -0.05612947  0.16166441  0.04157951       0.003
  -0.03741965  0.16166441  0.04157951       0.003
  -0.01870982  0.16166441  0.04157951       0.003
   0.00000000  0.18187246  0.04157951       0.001
   0.01870982  0.18187246  0.04157951       0.001
   0.03741965  0.18187246  0.04157951       0.001
   0.05612947  0.18187246  0.04157951       0.001
   0.07483930  0.18187246  0.04157951       0.001
   0.09354912  0.18187246  0.04157951       0.001
  -0.09354912  0.18187246  0.04157951       0.001
  -0.07483930  0.18187246  0.04157951       0.001
  -0.05612947  0.18187246  0.04157951       0.001
  -0.03741965  0.18187246  0.04157951       0.001
  -0.01870982  0.18187246  0.04157951       0.001
   0.00000000  0.00000000  0.06236926       0.001
   0.01870982  0.00000000  0.06236926       0.001
   0.03741965  0.00000000  0.06236926       0.001
   0.05612947  0.00000000  0.06236926       0.001
   0.07483930  0.00000000  0.06236926       0.001
   0.09354912  0.00000000  0.06236926       0.001
  -0.09354912  0.00000000  0.06236926       0.001
  -0.07483930  0.00000000  0.06236926       0.001
  -0.05612947  0.00000000  0.06236926       0.001
  -0.03741965  0.00000000  0.06236926       0.001
  -0.01870982  0.00000000  0.06236926       0.001
   0.00000000  0.02020805  0.06236926       0.003
   0.01870982  0.02020805  0.06236926       0.003
   0.03741965  0.02020805  0.06236926       0.003
   0.05612947  0.02020805  0.06236926       0.003
   0.07483930  0.02020805  0.06236926       0.003
   0.09354912  0.02020805  0.06236926       0.003
  -0.09354912  0.02020805  0.06236926       0.003
  -0.07483930  0.02020805  0.06236926       0.003
  -0.05612947  0.02020805  0.06236926       0.003
  -0.03741965  0.02020805  0.06236926       0.003
  -0.01870982  0.02020805  0.06236926       0.003
   0.00000000  0.04041610  0.06236926       0.003
   0.01870982  0.04041610  0.06236926       0.003
   0.03741965  0.04041610  0.06236926       0.003
   0.05612947  0.04041610  0.06236926       0.003
   0.07483930  0.04041610  0.06236926       0.003
   0.09354912  0.04041610  0.06236926       0.003
  -0.09354912  0.04041610  0.06236926       0.003
  -0.07483930  0.04041610  0.06236926       0.003
  -0.05612947  0.04041610  0.06236926       0.003
  -0.03741965  0.04041610  0.06236926       0.003
  -0.01870982  0.04041610  0.06236926       0.003
   0.00000000  0.06062415  0.06236926       0.003
   0.01870982  0.06062415  0.06236926       0.003
   0.03741965  0.06062415  0.06236926       0.003
   0.05612947  0.06062415  0.06236926       0.003
   0.07483930  0.06062415  0.06236926       0.003
   0.09354912  0.06062415  0.06236926       0.003
  -0.09354912  0.06062415  0.06236926       0.003
  -0.07483930  0.06062415  0.06236926       0.003
  -0.05612947  0.06062415  0.06236926       0.003
  -0.03741965  0.06062415  0.06236926       0.003
  -0.01870982  0.06062415  0.06236926       0.003
   0.00000000  0.08083221  0.06236926       0.003
   0.01870982  0.08083221  0.06236926       0.003
   0.03741965  0.08083221  0.06236926       0.003
   0.05612947  0.08083221  0.06236926       0.003
   0.07483930  0.08083221  0.06236926       0.003
   0.09354912  0.08083221  0.06236926       0.003
  -0.09354912  0.08083221  0.06236926       0.003
  -0.07483930  0.08083221  0.06236926       0.003
  -0.05612947  0.08083221  0.06236926       0.003
  -0.03741965  0.08083221  0.06236926       0.003
  -0.01870982  0.08083221  0.06236926       0.003
   0.00000000  0.10104026  0.06236926       0.003
   0.01870982  0.10104026  0.06236926       0.003
   0.03741965  0.10104026  0.06236926       0.003
   0.05612947  0.10104026  0.06236926       0.003
   0.07483930  0.10104026  0.06236926       0.003
   0.09354912  0.10104026  0.06236926       0.003
  -0.09354912  0.10104026  0.06236926       0.003
  -0.07483930  0.10104026  0.06236926       0.003
  -0.05612947  0.10104026  0.06236926       0.003
  -0.03741965  0.10104026  0.06236926       0.003
  -0.01870982  0.10104026  0.06236926       0.003
   0.00000000  0.12124831  0.06236926       0.003
   0.01870982  0.12124831  0.06236926       0.003
   0.03741965  0.12124831  0.06236926       0.003
   0.05612947  0.12124831  0.06236926       0.003
   0.07483930  0.12124831  0.06236926       0.003
   0.09354912  0.12124831  0.06236926       0.003
  -0.09354912  0.12124831  0.06236926       0.003
  -0.07483930  0.12124831  0.06236926       0.003
  -0.05612947  0.12124831  0.06236926       0.003
  -0.03741965  0.12124831  0.06236926       0.003
  -0.01870982  0.12124831  0.06236926       0.003
   0.00000000  0.14145636  0.06236926       0.003
   0.01870982  0.14145636  0.06236926       0.003
   0.03741965  0.14145636  0.06236926       0.003
   0.05612947  0.14145636  0.06236926       0.003
   0.07483930  0.14145636  0.06236926       0.003
   0.09354912  0.14145636  0.06236926       0.003
  -0.09354912  0.14145636  0.06236926       0.003
  -0.07483930  0.14145636  0.06236926       0.003
  -0.05612947  0.14145636  0.06236926       0.003
  -0.03741965  0.14145636  0.06236926       0.003
  -0.01870982  0.14145636  0.06236926       0.003
   0.00000000  0.16166441  0.06236926       0.003
   0.01870982  0.16166441  0.06236926       0.003
   0.03741965  0.16166441  0.06236926       0.003
   0.05612947  0.16166441  0.06236926       0.003
   0.07483930  0.16166441  0.06236926       0.003
   0.09354912  0.16166441  0.06236926       0.003
  -0.09354912  0.16166441  0.06236926       0.003
  -0.07483930  0.16166441  0.06236926       0.003
  -0.05612947  0.16166441  0.06236926       0.003
  -0.03741965  0.16166441  0.06236926       0.003
  -0.01870982  0.16166441  0.06236926       0.003
   0.00000000  0.18187246  0.06236926       0.001
   0.01870982  0.18187246  0.06236926       0.001
   0.03741965  0.18187246  0.06236926       0.001
   0.05612947  0.18187246  0.06236926       0.001
   0.07483930  0.18187246  0.06236926       0.001
   0.09354912  0.18187246  0.06236926       0.001
  -0.09354912  0.18187246  0.06236926       0.001
  -0.07483930  0.18187246  0.06236926       0.001
  -0.05612947  0.18187246  0.06236926       0.001
  -0.03741965  0.18187246  0.06236926       0.001
  -0.01870982  0.18187246  0.06236926       0.001
 
 k-points in reciprocal lattice and weights: K-Spacing Value to Generate K-Mesh: 0.02
   0.00000000  0.00000000  0.00000000       0.001
   0.09090909  0.00000000  0.00000000       0.001
   0.18181818  0.00000000  0.00000000       0.001
   0.27272727  0.00000000  0.00000000       0.001
   0.36363636  0.00000000  0.00000000       0.001
   0.45454545  0.00000000  0.00000000       0.001
   0.00000000  0.05555556  0.00000000       0.001
   0.09090909  0.05555556  0.00000000       0.003
   0.18181818  0.05555556  0.00000000       0.003
   0.27272727  0.05555556  0.00000000       0.003
   0.36363636  0.05555556  0.00000000       0.003
   0.45454545  0.05555556  0.00000000       0.003
   0.00000000  0.11111111  0.00000000       0.001
   0.09090909  0.11111111  0.00000000       0.003
   0.18181818  0.11111111  0.00000000       0.003
   0.27272727  0.11111111  0.00000000       0.003
   0.36363636  0.11111111  0.00000000       0.003
   0.45454545  0.11111111  0.00000000       0.003
   0.00000000  0.16666667  0.00000000       0.001
   0.09090909  0.16666667  0.00000000       0.003
   0.18181818  0.16666667  0.00000000       0.003
   0.27272727  0.16666667  0.00000000       0.003
   0.36363636  0.16666667  0.00000000       0.003
   0.45454545  0.16666667  0.00000000       0.003
   0.00000000  0.22222222  0.00000000       0.001
   0.09090909  0.22222222  0.00000000       0.003
   0.18181818  0.22222222  0.00000000       0.003
   0.27272727  0.22222222  0.00000000       0.003
   0.36363636  0.22222222  0.00000000       0.003
   0.45454545  0.22222222  0.00000000       0.003
   0.00000000  0.27777778  0.00000000       0.001
   0.09090909  0.27777778  0.00000000       0.003
   0.18181818  0.27777778  0.00000000       0.003
   0.27272727  0.27777778  0.00000000       0.003
   0.36363636  0.27777778  0.00000000       0.003
   0.45454545  0.27777778  0.00000000       0.003
   0.00000000  0.33333333  0.00000000       0.001
   0.09090909  0.33333333  0.00000000       0.003
   0.18181818  0.33333333  0.00000000       0.003
   0.27272727  0.33333333  0.00000000       0.003
   0.36363636  0.33333333  0.00000000       0.003
   0.45454545  0.33333333  0.00000000       0.003
   0.00000000  0.38888889  0.00000000       0.001
   0.09090909  0.38888889  0.00000000       0.003
   0.18181818  0.38888889  0.00000000       0.003
   0.27272727  0.38888889  0.00000000       0.003
   0.36363636  0.38888889  0.00000000       0.003
   0.45454545  0.38888889  0.00000000       0.003
   0.00000000  0.44444444  0.00000000       0.001
   0.09090909  0.44444444  0.00000000       0.003
   0.18181818  0.44444444  0.00000000       0.003
   0.27272727  0.44444444  0.00000000       0.003
   0.36363636  0.44444444  0.00000000       0.003
   0.45454545  0.44444444  0.00000000       0.003
   0.00000000  0.50000000  0.00000000       0.001
   0.09090909  0.50000000  0.00000000       0.001
   0.18181818  0.50000000  0.00000000       0.001
   0.27272727  0.50000000  0.00000000       0.001
   0.36363636  0.50000000  0.00000000       0.001
   0.45454545  0.50000000  0.00000000       0.001
   0.00000000  0.00000000  0.14285714       0.001
   0.09090909  0.00000000  0.14285714       0.001
   0.18181818  0.00000000  0.14285714       0.001
   0.27272727  0.00000000  0.14285714       0.001
   0.36363636  0.00000000  0.14285714       0.001
   0.45454545  0.00000000  0.14285714       0.001
  -0.45454545  0.00000000  0.14285714       0.001
  -0.36363636  0.00000000  0.14285714       0.001
  -0.27272727  0.00000000  0.14285714       0.001
  -0.18181818  0.00000000  0.14285714       0.001
  -0.09090909  0.00000000  0.14285714       0.001
   0.00000000  0.05555556  0.14285714       0.003
   0.09090909  0.05555556  0.14285714       0.003
   0.18181818  0.05555556  0.14285714       0.003
   0.27272727  0.05555556  0.14285714       0.003
   0.36363636  0.05555556  0.14285714       0.003
   0.45454545  0.05555556  0.14285714       0.003
  -0.45454545  0.05555556  0.14285714       0.003
  -0.36363636  0.05555556  0.14285714       0.003
  -0.27272727  0.05555556  0.14285714       0.003
  -0.18181818  0.05555556  0.14285714       0.003
  -0.09090909  0.05555556  0.14285714       0.003
   0.00000000  0.11111111  0.14285714       0.003
   0.09090909  0.11111111  0.14285714       0.003
   0.18181818  0.11111111  0.14285714       0.003
   0.27272727  0.11111111  0.14285714       0.003
   0.36363636  0.11111111  0.14285714       0.003
   0.45454545  0.11111111  0.14285714       0.003
  -0.45454545  0.11111111  0.14285714       0.003
  -0.36363636  0.11111111  0.14285714       0.003
  -0.27272727  0.11111111  0.14285714       0.003
  -0.18181818  0.11111111  0.14285714       0.003
  -0.09090909  0.11111111  0.14285714       0.003
   0.00000000  0.16666667  0.14285714       0.003
   0.09090909  0.16666667  0.14285714       0.003
   0.18181818  0.16666667  0.14285714       0.003
   0.27272727  0.16666667  0.14285714       0.003
   0.36363636  0.16666667  0.14285714       0.003
   0.45454545  0.16666667  0.14285714       0.003
  -0.45454545  0.16666667  0.14285714       0.003
  -0.36363636  0.16666667  0.14285714       0.003
  -0.27272727  0.16666667  0.14285714       0.003
  -0.18181818  0.16666667  0.14285714       0.003
  -0.09090909  0.16666667  0.14285714       0.003
   0.00000000  0.22222222  0.14285714       0.003
   0.09090909  0.22222222  0.14285714       0.003
   0.18181818  0.22222222  0.14285714       0.003
   0.27272727  0.22222222  0.14285714       0.003
   0.36363636  0.22222222  0.14285714       0.003
   0.45454545  0.22222222  0.14285714       0.003
  -0.45454545  0.22222222  0.14285714       0.003
  -0.36363636  0.22222222  0.14285714       0.003
  -0.27272727  0.22222222  0.14285714       0.003
  -0.18181818  0.22222222  0.14285714       0.003
  -0.09090909  0.22222222  0.14285714       0.003
   0.00000000  0.27777778  0.14285714       0.003
   0.09090909  0.27777778  0.14285714       0.003
   0.18181818  0.27777778  0.14285714       0.003
   0.27272727  0.27777778  0.14285714       0.003
   0.36363636  0.27777778  0.14285714       0.003
   0.45454545  0.27777778  0.14285714       0.003
  -0.45454545  0.27777778  0.14285714       0.003
  -0.36363636  0.27777778  0.14285714       0.003
  -0.27272727  0.27777778  0.14285714       0.003
  -0.18181818  0.27777778  0.14285714       0.003
  -0.09090909  0.27777778  0.14285714       0.003
   0.00000000  0.33333333  0.14285714       0.003
   0.09090909  0.33333333  0.14285714       0.003
   0.18181818  0.33333333  0.14285714       0.003
   0.27272727  0.33333333  0.14285714       0.003
   0.36363636  0.33333333  0.14285714       0.003
   0.45454545  0.33333333  0.14285714       0.003
  -0.45454545  0.33333333  0.14285714       0.003
  -0.36363636  0.33333333  0.14285714       0.003
  -0.27272727  0.33333333  0.14285714       0.003
  -0.18181818  0.33333333  0.14285714       0.003
  -0.09090909  0.33333333  0.14285714       0.003
   0.00000000  0.38888889  0.14285714       0.003
   0.09090909  0.38888889  0.14285714       0.003
   0.18181818  0.38888889  0.14285714       0.003
   0.27272727  0.38888889  0.14285714       0.003
   0.36363636  0.38888889  0.14285714       0.003
   0.45454545  0.38888889  0.14285714       0.003
  -0.45454545  0.38888889  0.14285714       0.003
  -0.36363636  0.38888889  0.14285714       0.003
  -0.27272727  0.38888889  0.14285714       0.003
  -0.18181818  0.38888889  0.14285714       0.003
  -0.09090909  0.38888889  0.14285714       0.003
   0.00000000  0.44444444  0.14285714       0.003
   0.09090909  0.44444444  0.14285714       0.003
   0.18181818  0.44444444  0.14285714       0.003
   0.27272727  0.44444444  0.14285714       0.003
   0.36363636  0.44444444  0.14285714       0.003
   0.45454545  0.44444444  0.14285714       0.003
  -0.45454545  0.44444444  0.14285714       0.003
  -0.36363636  0.44444444  0.14285714       0.003
  -0.27272727  0.44444444  0.14285714       0.003
  -0.18181818  0.44444444  0.14285714       0.003
  -0.09090909  0.44444444  0.14285714       0.003
   0.00000000  0.50000000  0.14285714       0.001
   0.09090909  0.50000000  0.14285714       0.001
   0.18181818  0.50000000  0.14285714       0.001
   0.27272727  0.50000000  0.14285714       0.001
   0.36363636  0.50000000  0.14285714       0.001
   0.45454545  0.50000000  0.14285714       0.001
  -0.45454545  0.50000000  0.14285714       0.001
  -0.36363636  0.50000000  0.14285714       0.001
  -0.27272727  0.50000000  0.14285714       0.001
  -0.18181818  0.50000000  0.14285714       0.001
  -0.09090909  0.50000000  0.14285714       0.001
   0.00000000  0.00000000  0.28571429       0.001
   0.09090909  0.00000000  0.28571429       0.001
   0.18181818  0.00000000  0.28571429       0.001
   0.27272727  0.00000000  0.28571429       0.001
   0.36363636  0.00000000  0.28571429       0.001
   0.45454545  0.00000000  0.28571429       0.001
  -0.45454545  0.00000000  0.28571429       0.001
  -0.36363636  0.00000000  0.28571429       0.001
  -0.27272727  0.00000000  0.28571429       0.001
  -0.18181818  0.00000000  0.28571429       0.001
  -0.09090909  0.00000000  0.28571429       0.001
   0.00000000  0.05555556  0.28571429       0.003
   0.09090909  0.05555556  0.28571429       0.003
   0.18181818  0.05555556  0.28571429       0.003
   0.27272727  0.05555556  0.28571429       0.003
   0.36363636  0.05555556  0.28571429       0.003
   0.45454545  0.05555556  0.28571429       0.003
  -0.45454545  0.05555556  0.28571429       0.003
  -0.36363636  0.05555556  0.28571429       0.003
  -0.27272727  0.05555556  0.28571429       0.003
  -0.18181818  0.05555556  0.28571429       0.003
  -0.09090909  0.05555556  0.28571429       0.003
   0.00000000  0.11111111  0.28571429       0.003
   0.09090909  0.11111111  0.28571429       0.003
   0.18181818  0.11111111  0.28571429       0.003
   0.27272727  0.11111111  0.28571429       0.003
   0.36363636  0.11111111  0.28571429       0.003
   0.45454545  0.11111111  0.28571429       0.003
  -0.45454545  0.11111111  0.28571429       0.003
  -0.36363636  0.11111111  0.28571429       0.003
  -0.27272727  0.11111111  0.28571429       0.003
  -0.18181818  0.11111111  0.28571429       0.003
  -0.09090909  0.11111111  0.28571429       0.003
   0.00000000  0.16666667  0.28571429       0.003
   0.09090909  0.16666667  0.28571429       0.003
   0.18181818  0.16666667  0.28571429       0.003
   0.27272727  0.16666667  0.28571429       0.003
   0.36363636  0.16666667  0.28571429       0.003
   0.45454545  0.16666667  0.28571429       0.003
  -0.45454545  0.16666667  0.28571429       0.003
  -0.36363636  0.16666667  0.28571429       0.003
  -0.27272727  0.16666667  0.28571429       0.003
  -0.18181818  0.16666667  0.28571429       0.003
[...]


--------------------------------------------------------------------------------------------------------




--------------------------------------- Iteration      3(   2)  ---------------------------------------


    POTLOK:  cpu time    0.0023: real time    0.0037
    SETDIJ:  cpu time    0.0018: real time    0.0018
    EDDIAG:  cpu time    1.6663: real time    1.6667
  RMM-DIIS:  cpu time    2.3337: real time    2.3341
    ORTHCH:  cpu time    0.1396: real time    0.1396
       DOS:  cpu time    0.0102: real time    0.0102
    CHARGE:  cpu time    0.2263: real time    0.2263
    MIXING:  cpu time    0.0002: real time    0.0002
    --------------------------------------------
      LOOP:  cpu time    4.3803: real time    4.3826

 eigenvalue-minimisations  : 28080
 total energy-change (2. order) : 0.4475442E-01  (-0.8430856E-02)
 number of electron      59.9999980 magnetization 
 augmentation part       18.6340181 magnetization 

 eigenvalues of (default mixing * dielectric matrix)
  average eigenvalue GAMMA=   1.2194
  1.2194

  free energy =  -0.365566932678E+02  energy without entropy=  -0.365548123416E+02


--------------------------------------------------------------------------------------------------------




--------------------------------------- Iteration      3(   3)  ---------------------------------------


    POTLOK:  cpu time    0.0017: real time    0.0017
    SETDIJ:  cpu time    0.0018: real time    0.0018
    EDDIAG:  cpu time    1.6701: real time    1.6706
  RMM-DIIS:  cpu time    2.3608: real time    2.3612
    ORTHCH:  cpu time    0.1390: real time    0.1392
       DOS:  cpu time    0.0109: real time    0.0109
    CHARGE:  cpu time    0.2262: real time    0.2262
    MIXING:  cpu time    0.0002: real time    0.0002
    --------------------------------------------
      LOOP:  cpu time    4.4109: real time    4.4119

 eigenvalue-minimisations  : 28301
 total energy-change (2. order) : 0.4246975E-02  (-0.1468800E-02)
 number of electron      59.9999980 magnetization 
 augmentation part       18.5957490 magnetization 

 eigenvalues of (default mixing * dielectric matrix)
  average eigenvalue GAMMA=   1.7997
  1.4747  2.1247

  free energy =  -0.365524462927E+02  energy without entropy=  -0.365507922799E+02


--------------------------------------------------------------------------------------------------------




--------------------------------------- Iteration      3(   4)  ---------------------------------------


    POTLOK:  cpu time    0.0017: real time    0.0017
    SETDIJ:  cpu time    0.0018: real time    0.0018
    EDDIAG:  cpu time    1.6591: real time    1.6594
  RMM-DIIS:  cpu time    2.3697: real time    2.3703
    ORTHCH:  cpu time    0.1396: real time    0.1396
       DOS:  cpu time    0.0100: real time    0.0100
    CHARGE:  cpu time    0.2216: real time    0.2217
    MIXING:  cpu time    0.0003: real time    0.0003
    --------------------------------------------
      LOOP:  cpu time    4.4039: real time    4.4047

 eigenvalue-minimisations  : 28542
 total energy-change (2. order) : 0.1401627E-03  (-0.1175910E-03)
 number of electron      59.9999980 magnetization 
 augmentation part       18.5975766 magnetization 

 eigenvalues of (default mixing * dielectric matrix)
  average eigenvalue GAMMA=   1.7841
  2.5785  1.3869  1.3869

  free energy =  -0.365523061301E+02  energy without entropy=  -0.365506939971E+02


--------------------------------------------------------------------------------------------------------




--------------------------------------- Iteration      3(   5)  ---------------------------------------


    POTLOK:  cpu time    0.0018: real time    0.0018
    SETDIJ:  cpu time    0.0017: real time    0.0017
    EDDIAG:  cpu time    1.6561: real time    1.6565
  RMM-DIIS:  cpu time    2.3688: real time    2.3692
    ORTHCH:  cpu time    0.1383: real time    0.1383
       DOS:  cpu time    0.0098: real time    0.0098
    CHARGE:  cpu time    0.2237: real time    0.2239
    MIXING:  cpu time    0.0003: real time    0.0003
    --------------------------------------------
      LOOP:  cpu time    4.4005: real time    4.4014

 eigenvalue-minimisations  : 28495
 total energy-change (2. order) :-0.1204849E-05  (-0.1456151E-04)
 number of electron      59.9999980 magnetization 
 augmentation part       18.5939372 magnetization 

 eigenvalues of (default mixing * dielectric matrix)
  average eigenvalue GAMMA=   1.5988
  2.4206  1.6733  1.4164  0.8851

  free energy =  -0.365523073349E+02  energy without entropy=  -0.365506937541E+02


--------------------------------------------------------------------------------------------------------




--------------------------------------- Iteration      3(   6)  ---------------------------------------


    POTLOK:  cpu time    0.0017: real time    0.0017
    SETDIJ:  cpu time    0.0017: real time    0.0017
    EDDIAG:  cpu time    1.6623: real time    1.6626
  RMM-DIIS:  cpu time    2.1339: real time    2.1343
    ORTHCH:  cpu time    0.1406: real time    0.1408
       DOS:  cpu time    0.0103: real time    0.0103
    CHARGE:  cpu time    0.2227: real time    0.2227
    MIXING:  cpu time    0.0003: real time    0.0003
    --------------------------------------------
      LOOP:  cpu time    4.1736: real time    4.1744

 eigenvalue-minimisations  : 24901
 total energy-change (2. order) : 0.2510452E-05  (-0.6648419E-06)
 number of electron      59.9999980 magnetization 
 augmentation part       18.5945475 magnetization 

 eigenvalues of (default mixing * dielectric matrix)
  average eigenvalue GAMMA=   1.9589
  3.4788  2.3502  0.9963  1.4004  1.5686

  free energy =  -0.365523048244E+02  energy without entropy=  -0.365506831427E+02


--------------------------------------------------------------------------------------------------------




--------------------------------------- Iteration      3(   7)  ---------------------------------------


    POTLOK:  cpu time    0.0018: real time    0.0018
    SETDIJ:  cpu time    0.0018: real time    0.0018
    EDDIAG:  cpu time    1.6535: real time    1.6537
  RMM-DIIS:  cpu time    1.4817: real time    1.4821
    ORTHCH:  cpu time    0.1401: real time    0.1401
       DOS:  cpu time    0.0100: real time    0.0100
    --------------------------------------------
      LOOP:  cpu time    3.2889: real time    3.2894

 eigenvalue-minimisations  : 15741
 total energy-change (2. order) :-0.2530742E-06  (-0.2794087E-06)
 number of electron      59.9999980 magnetization 
 augmentation part       18.5945475 magnetization 

  free energy =  -0.365523050775E+02  energy without entropy=  -0.365506824674E+02


--------------------------------------------------------------------------------------------------------




------------------------ aborting loop because EDIFF is reached ----------------------------------------


    CHARGE:  cpu time    0.2238: real time    0.2238
    FORLOC:  cpu time    0.0001: real time    0.0001
    FORNL :  cpu time    0.6424: real time    0.6426
    STRESS:  cpu time    1.1762: real time    1.1764
    FORCOR:  cpu time    0.0015: real time    0.0015
    FORHAR:  cpu time    0.0006: real time    0.0006
    MIXING:  cpu time    0.0003: real time    0.0003
    OFIELD:  cpu time    0.0000: real time    0.0000

  FORCE on cell =-STRESS in cart. coord.  units (eV):
  Direction    XX          YY          ZZ          XY          YZ          ZX
  --------------------------------------------------------------------------------------
  Alpha Z   368.39222   368.39222   368.39222
  Ewald   -1668.24021 -1637.04519 -1700.39413     0.00000    -0.00000     8.15662
  Hartree   127.80834   136.44816   118.10958     0.00000    -0.00000     2.55236
  E(xc)    -267.40894  -267.32130  -267.53576    -0.00000     0.00000     0.04625
  Local     217.36285   182.38565   254.39650     0.00000     0.00000    -9.32110
  n-local    33.59225    36.80242    30.80024     1.11216    -0.99146     0.46807
  augment   315.65231   313.28052   318.02985     0.00000     0.00000    -0.61118
  Kinetic   873.86454   869.93888   878.32495     1.94102     0.71067    -1.27738
  Fock        0.00000     0.00000     0.00000     0.00000     0.00000     0.00000
  -------------------------------------------------------------------------------------
  Total       1.02337     2.88136     0.12345     0.00000     0.00000     0.01363
  in kB      17.65061    49.69658     2.12919     0.00000     0.00000     0.23503
  external pressure =       23.16 kB  Pullay stress =        0.00 kB



--------------------------------------------------------------------------------------------------------



  FREE ENERGIE OF THE ION-ELECTRON SYSTEM (eV)
  ---------------------------------------------------
  free  energy   TOTEN  =       -36.55230508 eV

  energy  without entropy=      -36.55068247  energy(sigma->0) =      -36.55176421
 
 d Force = 0.0000000E+00[ 0.000E+00, 0.000E+00]  d Energy = 0.6887346E-02-0.689E-02
 d Force = 0.0000000E+00[ 0.000E+00, 0.000E+00]  d Ewald  =-0.1358412E+02 0.136E+02


--------------------------------------------------------------------------------------------------------


    POTLOK:  cpu time    0.0035: real time    0.0035


--------------------------------------------------------------------------------------------------------


 stress matrix after NEB project (eV)
      1.02337      0.00000      0.01363
      0.00000      2.88136      0.00000
      0.01363      0.00000      0.12345
  FORCES: max atom, RMS     0.000000    0.000000
  FORCE total and by dimension    0.000000    0.000000
  Stress total and by dimension    3.060251    2.881362
 Quasi-Newton relaxation of ions (Broydens 2nd method)
  g(Force)  = 0.209E-42   g(Stress)= 0.245E-04

 retain information from N=  1 steps
 eigenvalues of (default step * inverse Hessian matrix)
  average eigenvalue of G=   3.2929
 eigenvalue spectrum of G is  3.2929


--------------------------------------------------------------------------------------------------------


    WAVPRE:  cpu time    0.0028: real time    0.0028
    FEWALD:  cpu time    0.0010: real time    0.0014
    GENKIN:  cpu time    0.1019: real time    0.1019
    ORTHCH:  cpu time    0.2329: real time    0.2330
     LOOP+:  cpu time   40.0761: real time   40.0877


--------------------------------------- Iteration      4(   1)  ---------------------------------------


    POTLOK:  cpu time    0.0025: real time    0.0025
    SETDIJ:  cpu time    0.0018: real time    0.0018
     EDDAV:  cpu time   14.8555: real time   14.8584
       DOS:  cpu time    0.0100: real time    0.0100
    CHARGE:  cpu time    0.2236: real time    0.2237
    MIXING:  cpu time    0.0002: real time    0.0002
    --------------------------------------------
      LOOP:  cpu time   15.0937: real time   15.0967

 eigenvalue-minimisations  : 30888
 total energy-change (2. order) :-0.3536545E-03  (-0.1151254E-02)
 number of electron      59.9999980 magnetization 
 augmentation part       18.6068990 magnetization 

  free energy =  -0.365526584790E+02  energy without entropy=  -0.365510072316E+02


--------------------------------------------------------------------------------------------------------




--------------------------------------- Iteration      4(   2)  ---------------------------------------


    POTLOK:  cpu time    0.0018: real time    0.0018
    SETDIJ:  cpu time    0.0017: real time    0.0017
    EDDIAG:  cpu time    1.6494: real time    1.6497
  RMM-DIIS:  cpu time    2.3275: real time    2.3281
    ORTHCH:  cpu time    0.1381: real time    0.1381
       DOS:  cpu time    0.0100: real time    0.0100
    CHARGE:  cpu time    0.2246: real time    0.2246
    MIXING:  cpu time    0.0002: real time    0.0002
    --------------------------------------------
      LOOP:  cpu time    4.3535: real time    4.3543

 eigenvalue-minimisations  : 28080
 total energy-change (2. order) : 0.2999152E-03  (-0.5641704E-04)
 number of electron      59.9999980 magnetization 
 augmentation part       18.5988017 magnetization 

 eigenvalues of (default mixing * dielectric matrix)
  average eigenvalue GAMMA=   1.2397
  1.2397

  free energy =  -0.365523585638E+02  energy without entropy=  -0.365507534042E+02


--------------------------------------------------------------------------------------------------------




--------------------------------------- Iteration      4(   3)  ---------------------------------------


    POTLOK:  cpu time    0.0017: real time    0.0017
    SETDIJ:  cpu time    0.0018: real time    0.0017
    EDDIAG:  cpu time    1.6485: real time    1.6489
  RMM-DIIS:  cpu time    2.3414: real time    2.3417
    ORTHCH:  cpu time    0.1389: real time    0.1389
       DOS:  cpu time    0.0100: real time    0.0100
    CHARGE:  cpu time    0.2250: real time    0.2250
    MIXING:  cpu time    0.0003: real time    0.0002
    --------------------------------------------
      LOOP:  cpu time    4.3676: real time    4.3683

 eigenvalue-minimisations  : 28277
 total energy-change (2. order) : 0.3020989E-04  (-0.9944745E-05)
 number of electron      59.9999980 magnetization 
 augmentation part       18.5956489 magnetization 

 eigenvalues of (default mixing * dielectric matrix)
  average eigenvalue GAMMA=   1.8432
  1.4595  2.2268

  free energy =  -0.365523283539E+02  energy without entropy=  -0.365507460896E+02


--------------------------------------------------------------------------------------------------------




--------------------------------------- Iteration      4(   4)  ---------------------------------------


    POTLOK:  cpu time    0.0017: real time    0.0017
    SETDIJ:  cpu time    0.0018: real time    0.0018
    EDDIAG:  cpu time    1.6478: real time    1.6483
  RMM-DIIS:  cpu time    2.2082: real time    2.2086
    ORTHCH:  cpu time    0.1401: real time    0.1401
       DOS:  cpu time    0.0102: real time    0.0101
    CHARGE:  cpu time    0.2251: real time    0.2252
    MIXING:  cpu time    0.0003: real time    0.0003
    --------------------------------------------
      LOOP:  cpu time    4.2351: real time    4.2361

 eigenvalue-minimisations  : 26138
 total energy-change (2. order) : 0.2844838E-05  (-0.8235091E-06)
 number of electron      59.9999980 magnetization 
 augmentation part       18.5958360 magnetization 

 eigenvalues of (default mixing * dielectric matrix)
  average eigenvalue GAMMA=   1.7564
  2.4205  1.4244  1.4244

  free energy =  -0.365523255090E+02  energy without entropy=  -0.365507469497E+02


--------------------------------------------------------------------------------------------------------




--------------------------------------- Iteration      4(   5)  ---------------------------------------


    POTLOK:  cpu time    0.0017: real time    0.0030
    SETDIJ:  cpu time    0.0017: real time    0.0017
    EDDIAG:  cpu time    1.6521: real time    1.6524
  RMM-DIIS:  cpu time    1.4225: real time    1.4229
    ORTHCH:  cpu time    0.1393: real time    0.1393
       DOS:  cpu time    0.0100: real time    0.0100
    --------------------------------------------
      LOOP:  cpu time    3.2274: real time    3.2293

 eigenvalue-minimisations  : 14833
 total energy-change (2. order) : 0.5000129E-07  (-0.9763872E-07)
 number of electron      59.9999980 magnetization 
 augmentation part       18.5958360 magnetization 

  free energy =  -0.365523254590E+02  energy without entropy=  -0.365507466172E+02


--------------------------------------------------------------------------------------------------------




------------------------ aborting loop because EDIFF is reached ----------------------------------------


    CHARGE:  cpu time    0.2237: real time    0.2237
    FORLOC:  cpu time    0.0001: real time    0.0001
    FORNL :  cpu time    0.6429: real time    0.6431
    STRESS:  cpu time    1.1777: real time    1.1779
    FORCOR:  cpu time    0.0015: real time    0.0015
    FORHAR:  cpu time    0.0006: real time    0.0005
    MIXING:  cpu time    0.0002: real time    0.0002
    OFIELD:  cpu time    0.0000: real time    0.0000

  FORCE on cell =-STRESS in cart. coord.  units (eV):
  Direction    XX          YY          ZZ          XY          YZ          ZX
  --------------------------------------------------------------------------------------
  Alpha Z   368.15157   368.15157   368.15157
  Ewald   -1667.38768 -1636.18461 -1700.99587     0.00000     0.00000     8.13477
  Hartree   128.06603   136.71066   117.93013     0.00000    -0.00000     2.54734
  E(xc)    -267.38988  -267.30245  -267.52283    -0.00000     0.00000     0.04620
  Local     216.59968   181.60380   255.29890     0.00000    -0.00000    -9.29848
  n-local    33.50814    36.72350    30.59667     1.11242    -0.99435     0.46388
  augment   315.61808   313.24771   318.09846     0.00000     0.00000    -0.60867
  Kinetic   873.75448   869.83591   878.41243     1.94246     0.71283    -1.27404
  Fock        0.00000     0.00000     0.00000     0.00000     0.00000     0.00000
  -------------------------------------------------------------------------------------
  Total       0.92042     2.78608    -0.03056     0.00000     0.00000     0.01099
  in kB      15.86474    48.02182    -0.52667     0.00000     0.00000     0.18942
  external pressure =       21.12 kB  Pullay stress =        0.00 kB



--------------------------------------------------------------------------------------------------------



  FREE ENERGIE OF THE ION-ELECTRON SYSTEM (eV)
  ---------------------------------------------------
  free  energy   TOTEN  =       -36.55232546 eV

  energy  without entropy=      -36.55074662  energy(sigma->0) =      -36.55179918
 
 d Force = 0.0000000E+00[ 0.000E+00, 0.000E+00]  d Energy = 0.2038152E-04-0.204E-04
 d Force = 0.0000000E+00[ 0.000E+00, 0.000E+00]  d Ewald  =-0.1111366E+01 0.111E+01


--------------------------------------------------------------------------------------------------------


    POTLOK:  cpu time    0.0036: real time    0.0036


--------------------------------------------------------------------------------------------------------


 stress matrix after NEB project (eV)
      0.92042      0.00000      0.01099
      0.00000      2.78608      0.00000
      0.01099      0.00000     -0.03056
  FORCES: max atom, RMS     0.000000    0.000000
  FORCE total and by dimension    0.000000    0.000000
  Stress total and by dimension    2.934383    2.786081
 Quasi-Newton relaxation of ions (Broydens 2nd method)
  g(Force)  = 0.329E-42   g(Stress)= 0.150E-05

 retain information from N=  1 steps
 eigenvalues of (default step * inverse Hessian matrix)
  average eigenvalue of G=   2.6392
 eigenvalue spectrum of G is  2.6392


--------------------------------------------------------------------------------------------------------


  
 reached required accuracy - stopping structural energy minimisation
     LOOP+:  cpu time   33.3328: real time   33.3418
    4ORBIT:  cpu time    0.0000: real time    0.0000

 total amount of memory used by VASP MPI-rank0    63878. kBytes
=======================================================================

   base      :      30000. kBytes
   nonl-proj :      19577. kBytes
   fftplans  :        256. kBytes
   grid      :        327. kBytes
   one-center:         15. kBytes
   wavefun   :      13703. kBytes
 
  
  
 General timing and accounting informations for this job:
 ========================================================
  
                  Total CPU time used (sec):      207.347
                            User time (sec):      170.563
                          System time (sec):       36.784
                         Elapsed time (sec):      207.423
  
                   Maximum memory used (kb):      140092.
                   Average memory used (kb):           0.
  
                          Minor page faults:       104363
                          Major page faults:            0
                 Voluntary context switches:     11759374
