       N       E                     dE             d eps       ncg     rms          rms(c)
DAV:   1     0.430984455363E+04    0.43098E+04   -0.26896E+05  3920   0.127E+03
DAV:   2    -0.645886248641E+02   -0.43744E+04   -0.40409E+04  4632   0.281E+02
DAV:   3    -0.393030274386E+03   -0.32844E+03   -0.29543E+03  4624   0.701E+01
DAV:   4    -0.408987344695E+03   -0.15957E+02   -0.15038E+02  5064   0.141E+01
DAV:   5    -0.409426710239E+03   -0.43937E+00   -0.43618E+00  5360   0.243E+00    0.857E+01
RMM:   6    -0.397917730683E+03    0.11509E+02   -0.74406E+01  3937   0.137E+01    0.649E+01
RMM:   7    -0.600510248000E+03   -0.20259E+03   -0.32543E+02  4258   0.171E+01    0.101E+02
RMM:   8    -0.524937948343E+03    0.75572E+02   -0.14155E+02  3928   0.117E+01    0.895E+01
RMM:   9    -0.419134116694E+03    0.10580E+03   -0.80369E+01  3932   0.108E+01    0.470E+01
RMM:  10    -0.409424192573E+03    0.97099E+01   -0.60546E+01  3934   0.935E+00    0.459E+01
RMM:  11    -0.400876783735E+03    0.85474E+01   -0.20437E+01  3933   0.528E+00    0.414E+01
RMM:  12    -0.385217484028E+03    0.15659E+02   -0.64974E+00  3933   0.321E+00    0.174E+01
RMM:  13    -0.383470134211E+03    0.17473E+01   -0.19538E+00  3936   0.179E+00    0.129E+01
RMM:  14    -0.382716555053E+03    0.75358E+00   -0.51779E-01  3953   0.919E-01    0.761E+00
RMM:  15    -0.382785076353E+03   -0.68521E-01   -0.31233E-01  3931   0.669E-01    0.736E+00
RMM:  16    -0.383090934626E+03   -0.30586E+00   -0.36672E-01  3935   0.744E-01    0.939E+00
RMM:  17    -0.382481182824E+03    0.60975E+00   -0.15149E-01  3929   0.499E-01    0.555E+00
RMM:  18    -0.382368996558E+03    0.11219E+00   -0.70096E-02  3935   0.370E-01    0.452E+00
RMM:  19    -0.382338697933E+03    0.30299E-01   -0.54665E-02  3934   0.293E-01    0.410E+00
RMM:  20    -0.382269662148E+03    0.69036E-01   -0.45666E-02  3935   0.272E-01    0.282E+00
RMM:  21    -0.382253409605E+03    0.16253E-01   -0.38917E-02  3933   0.238E-01    0.265E+00
RMM:  22    -0.382216090937E+03    0.37319E-01   -0.14477E-02  3938   0.153E-01    0.192E+00
RMM:  23    -0.382207326520E+03    0.87644E-02   -0.34631E-03  4003   0.709E-02    0.178E+00
RMM:  24    -0.382194806840E+03    0.12520E-01   -0.16069E-03  3954   0.528E-02    0.148E+00
RMM:  25    -0.382183335043E+03    0.11472E-01   -0.21781E-03  3933   0.540E-02    0.111E+00
RMM:  26    -0.382176363816E+03    0.69712E-02   -0.23926E-03  3930   0.583E-02    0.665E-01
RMM:  27    -0.382174019728E+03    0.23441E-02   -0.99651E-04  3958   0.394E-02    0.461E-01
RMM:  28    -0.382172688303E+03    0.13314E-02   -0.53207E-04  3973   0.288E-02    0.328E-01
RMM:  29    -0.382171759572E+03    0.92873E-03   -0.39401E-04  3953   0.213E-02    0.191E-01
RMM:  30    -0.382171476439E+03    0.28313E-03   -0.36251E-04  3935   0.206E-02    0.844E-02
RMM:  31    -0.382171505277E+03   -0.28838E-04   -0.96723E-05  4132   0.102E-02    0.507E-02
RMM:  32    -0.382171566220E+03   -0.60944E-04   -0.28923E-05  3986   0.582E-03    0.280E-02
RMM:  33    -0.382171656220E+03   -0.90000E-04   -0.10541E-05  3739   0.389E-03    0.238E-02
RMM:  34    -0.382171710748E+03   -0.54528E-04   -0.43213E-06  2807   0.244E-03    0.158E-02
RMM:  35    -0.382171790334E+03   -0.79586E-04   -0.42743E-06  2769   0.216E-03    0.892E-03
RMM:  36    -0.382171837946E+03   -0.47612E-04   -0.21033E-06  2365   0.160E-03    0.102E-02
RMM:  37    -0.382171941905E+03   -0.10396E-03   -0.55177E-06  2838   0.195E-03    0.155E-02
RMM:  38    -0.382171988726E+03   -0.46821E-04   -0.28275E-06  2506   0.169E-03    0.116E-02
RMM:  39    -0.382172024387E+03   -0.35662E-04   -0.36921E-06  2632   0.195E-03    0.114E-02
RMM:  40    -0.382172033324E+03   -0.89366E-05   -0.95408E-07  2248   0.103E-03    0.698E-03
RMM:  41    -0.382172038743E+03   -0.54188E-05   -0.29993E-07  1759   0.619E-04    0.566E-03
RMM:  42    -0.382172048714E+03   -0.99706E-05   -0.42878E-07  2145   0.782E-04    0.545E-03
RMM:  43    -0.382172052601E+03   -0.38879E-05   -0.10604E-07  1064   0.413E-04    0.324E-03
RMM:  44    -0.382172059738E+03   -0.71362E-05   -0.14725E-07  1630   0.483E-04    0.459E-03
RMM:  45    -0.382172065058E+03   -0.53205E-05   -0.71892E-08  1128   0.419E-04    0.164E-03
RMM:  46    -0.382172069578E+03   -0.45194E-05   -0.58432E-08   848   0.363E-04    0.238E-03
RMM:  47    -0.382172073394E+03   -0.38160E-05   -0.86223E-08  1128   0.402E-04    0.206E-03
RMM:  48    -0.382172077604E+03   -0.42102E-05   -0.79167E-08   921   0.357E-04    0.687E-04
RMM:  49    -0.382172080286E+03   -0.26821E-05   -0.83435E-08   849   0.347E-04    0.166E-03
RMM:  50    -0.382172081370E+03   -0.10841E-05   -0.28763E-08   508   0.305E-04    0.727E-04
RMM:  51    -0.382172082143E+03   -0.77281E-06   -0.20607E-08   474   0.310E-04
   1 F= -.41739886E+03 E0= -.41708411E+03  d E =-.417399E+03
       N       E                     dE             d eps       ncg     rms          rms(c)
DAV:   1    -0.382169976517E+03    0.21049E-02   -0.21926E+00  4000   0.193E+00    0.245E-01
RMM:   2    -0.382176940093E+03   -0.69636E-02   -0.28779E-02  3930   0.301E-01    0.930E-01
RMM:   3    -0.382171163020E+03    0.57771E-02   -0.27908E-03  3992   0.911E-02    0.265E-01
RMM:   4    -0.382176992575E+03   -0.58296E-02   -0.11382E-03  3957   0.490E-02    0.775E-01
RMM:   5    -0.382172641651E+03    0.43509E-02   -0.12863E-03  3954   0.509E-02    0.311E-01
RMM:   6    -0.382172198894E+03    0.44276E-03   -0.39538E-04  3936   0.341E-02    0.171E-01
RMM:   7    -0.382172535231E+03   -0.33634E-03   -0.43536E-04  3934   0.267E-02    0.241E-01
RMM:   8    -0.382172303962E+03    0.23127E-03   -0.18390E-04  3949   0.207E-02    0.119E-01
RMM:   9    -0.382172203025E+03    0.10094E-03   -0.50187E-05  3930   0.918E-03    0.648E-02
RMM:  10    -0.382172178875E+03    0.24150E-04   -0.16675E-05  3924   0.512E-03    0.335E-02
RMM:  11    -0.382172172007E+03    0.68673E-05   -0.78644E-06  3802   0.368E-03    0.171E-02
RMM:  12    -0.382172170949E+03    0.10584E-05   -0.31264E-06  2438   0.243E-03    0.118E-02
RMM:  13    -0.382172170801E+03    0.14785E-06   -0.23330E-06  2144   0.218E-03
   2 F= -.41741852E+03 E0= -.41710356E+03  d E =-.196542E-01
       N       E                     dE             d eps       ncg     rms          rms(c)
DAV:   1    -0.382124092485E+03    0.48078E-01   -0.36403E+01  3968   0.784E+00    0.927E-01
RMM:   2    -0.382240511583E+03   -0.11642E+00   -0.46803E-01  3941   0.121E+00    0.308E+00
RMM:   3    -0.382188665659E+03    0.51846E-01   -0.42844E-02  3987   0.294E-01    0.208E+00
RMM:   4    -0.382166227794E+03    0.22438E-01   -0.10532E-02  3931   0.130E-01    0.100E+00
RMM:   5    -0.382166001875E+03    0.22592E-03   -0.13447E-02  3940   0.177E-01    0.941E-01
RMM:   6    -0.382161510745E+03    0.44911E-02   -0.45554E-03  3931   0.102E-01    0.505E-01
RMM:   7    -0.382166451939E+03   -0.49412E-02   -0.62860E-03  3935   0.102E-01    0.887E-01
RMM:   8    -0.382162782491E+03    0.36694E-02   -0.22191E-03  3944   0.717E-02    0.484E-01
RMM:   9    -0.382161183529E+03    0.15990E-02   -0.70872E-04  3932   0.332E-02    0.259E-01
RMM:  10    -0.382160783727E+03    0.39980E-03   -0.25711E-04  3935   0.208E-02    0.112E-01
RMM:  11    -0.382160713733E+03    0.69994E-04   -0.13154E-04  3934   0.153E-02    0.637E-02
RMM:  12    -0.382160702331E+03    0.11402E-04   -0.37406E-05  3950   0.827E-03    0.407E-02
RMM:  13    -0.382160692322E+03    0.10009E-04   -0.24317E-05  3923   0.635E-03    0.268E-02
RMM:  14    -0.382160688252E+03    0.40696E-05   -0.12513E-05  3904   0.449E-03    0.125E-02
RMM:  15    -0.382160689225E+03   -0.97303E-06   -0.40129E-06  2787   0.274E-03
   3 F= -.41748699E+03 E0= -.41717119E+03  d E =-.684700E-01
       N       E                     dE             d eps       ncg     rms          rms(c)
DAV:   1    -0.382021785584E+03    0.13890E+00   -0.87194E+01  3920   0.122E+01    0.146E+00
RMM:   2    -0.382357959130E+03   -0.33617E+00   -0.11832E+00  3960   0.191E+00    0.522E+00
RMM:   3    -0.382181841149E+03    0.17612E+00   -0.10841E-01  3992   0.454E-01    0.311E+00
RMM:   4    -0.382135180620E+03    0.46661E-01   -0.31171E-02  3940   0.225E-01    0.179E+00
RMM:   5    -0.382123324009E+03    0.11857E-01   -0.31255E-02  3939   0.263E-01    0.134E+00
RMM:   6    -0.382115579737E+03    0.77443E-02   -0.89372E-03  3937   0.143E-01    0.714E-01
RMM:   7    -0.382128268348E+03   -0.12689E-01   -0.14451E-02  3933   0.154E-01    0.144E+00
RMM:   8    -0.382117540795E+03    0.10728E-01   -0.52524E-03  3938   0.103E-01    0.736E-01
RMM:   9    -0.382113635608E+03    0.39052E-02   -0.15859E-03  3934   0.491E-02    0.369E-01
RMM:  10    -0.382112761143E+03    0.87447E-03   -0.60535E-04  3937   0.316E-02    0.124E-01
RMM:  11    -0.382112756289E+03    0.48534E-05   -0.20025E-04  3951   0.197E-02    0.912E-02
RMM:  12    -0.382112719099E+03    0.37190E-04   -0.88838E-05  3941   0.121E-02    0.591E-02
RMM:  13    -0.382112696986E+03    0.22113E-04   -0.50845E-05  3924   0.918E-03    0.376E-02
RMM:  14    -0.382112689649E+03    0.73372E-05   -0.26752E-05  3916   0.661E-03    0.206E-02
RMM:  15    -0.382112690257E+03   -0.60776E-06   -0.81636E-06  3798   0.379E-03
   4 F= -.41756343E+03 E0= -.41724624E+03  d E =-.764450E-01
       N       E                     dE             d eps       ncg     rms          rms(c)
DAV:   1    -0.381977240836E+03    0.13545E+00   -0.62402E+01  3920   0.105E+01    0.129E+00
RMM:   2    -0.382244969731E+03   -0.26773E+00   -0.89544E-01  3964   0.164E+00    0.473E+00
RMM:   3    -0.382099377274E+03    0.14559E+00   -0.83408E-02  3986   0.397E-01    0.278E+00
RMM:   4    -0.382067929515E+03    0.31448E-01   -0.28016E-02  3940   0.208E-01    0.189E+00
RMM:   5    -0.382052860725E+03    0.15069E-01   -0.24050E-02  3949   0.242E-01    0.116E+00
RMM:   6    -0.382047833821E+03    0.50269E-02   -0.63140E-03  3937   0.118E-01    0.648E-01
RMM:   7    -0.382057838474E+03   -0.10005E-01   -0.10476E-02  3934   0.131E-01    0.131E+00
RMM:   8    -0.382049021573E+03    0.88169E-02   -0.42352E-03  3943   0.871E-02    0.642E-01
RMM:   9    -0.382045990896E+03    0.30307E-02   -0.12036E-03  3932   0.432E-02    0.318E-01
RMM:  10    -0.382045296188E+03    0.69471E-03   -0.49418E-04  3950   0.274E-02    0.115E-01
RMM:  11    -0.382045272356E+03    0.23832E-04   -0.10132E-04  3982   0.139E-02    0.639E-02
RMM:  12    -0.382045260866E+03    0.11490E-04   -0.50105E-05  3928   0.915E-03    0.536E-02
RMM:  13    -0.382045244626E+03    0.16240E-04   -0.38804E-05  3931   0.800E-03    0.355E-02
RMM:  14    -0.382045238413E+03    0.62123E-05   -0.17288E-05  3922   0.532E-03    0.199E-02
RMM:  15    -0.382045239494E+03   -0.10810E-05   -0.45089E-06  2903   0.298E-03    0.145E-02
RMM:  16    -0.382045239500E+03   -0.59445E-08   -0.13773E-06  2143   0.182E-03
   5 F= -.41760177E+03 E0= -.41728336E+03  d E =-.383316E-01
       N       E                     dE             d eps       ncg     rms          rms(c)
DAV:   1    -0.381970912088E+03    0.74327E-01   -0.21317E+01  3920   0.622E+00    0.810E-01
RMM:   2    -0.382068305149E+03   -0.97393E-01   -0.33307E-01  3968   0.974E-01    0.288E+00
RMM:   3    -0.382017227583E+03    0.51078E-01   -0.31225E-02  3999   0.244E-01    0.177E+00
RMM:   4    -0.382007467935E+03    0.97596E-02   -0.12518E-02  3934   0.135E-01    0.147E+00
RMM:   5    -0.381998503482E+03    0.89645E-02   -0.93337E-03  3947   0.170E-01    0.746E-01
RMM:   6    -0.381997156041E+03    0.13474E-02   -0.25394E-03  3934   0.743E-02    0.458E-01
RMM:   7    -0.382000347768E+03   -0.31917E-02   -0.35798E-03  3931   0.764E-02    0.786E-01
RMM:   8    -0.381997327810E+03    0.30200E-02   -0.16476E-03  3944   0.526E-02    0.387E-01
RMM:   9    -0.381996297782E+03    0.10300E-02   -0.49120E-04  3931   0.285E-02    0.191E-01
RMM:  10    -0.381996077417E+03    0.22037E-03   -0.17053E-04  3944   0.161E-02    0.950E-02
RMM:  11    -0.381996023958E+03    0.53460E-04   -0.59753E-05  3947   0.977E-03    0.411E-02
RMM:  12    -0.381996024276E+03   -0.31788E-06   -0.23467E-05  3943   0.623E-03    0.359E-02
RMM:  13    -0.381996021240E+03    0.30362E-05   -0.14443E-05  3918   0.499E-03    0.289E-02
RMM:  14    -0.381996015265E+03    0.59741E-05   -0.72768E-06  3639   0.353E-03    0.123E-02
RMM:  15    -0.381996016063E+03   -0.79714E-06   -0.14680E-06  2155   0.178E-03
   6 F= -.41761385E+03 E0= -.41729484E+03  d E =-.120827E-01
       N       E                     dE             d eps       ncg     rms          rms(c)
DAV:   1    -0.381956716687E+03    0.39299E-01   -0.70384E+00  3920   0.367E+00    0.518E-01
RMM:   2    -0.381989813324E+03   -0.33097E-01   -0.12324E-01  3975   0.571E-01    0.171E+00
RMM:   3    -0.381975430474E+03    0.14383E-01   -0.12183E-02  3981   0.155E-01    0.118E+00
RMM:   4    -0.381972557738E+03    0.28727E-02   -0.58331E-03  3939   0.882E-02    0.113E+00
RMM:   5    -0.381966830287E+03    0.57275E-02   -0.36543E-03  3946   0.117E-01    0.504E-01
RMM:   6    -0.381966497108E+03    0.33318E-03   -0.11087E-03  3935   0.488E-02    0.337E-01
RMM:   7    -0.381967319194E+03   -0.82209E-03   -0.11936E-03  3932   0.444E-02    0.454E-01
RMM:   8    -0.381966429779E+03    0.88941E-03   -0.62324E-04  3945   0.321E-02    0.239E-01
RMM:   9    -0.381966075127E+03    0.35465E-03   -0.21806E-04  3929   0.195E-02    0.110E-01
RMM:  10    -0.381966034112E+03    0.41014E-04   -0.54342E-05  3933   0.930E-03    0.744E-02
RMM:  11    -0.381965997522E+03    0.36590E-04   -0.26611E-05  3915   0.643E-03    0.337E-02
RMM:  12    -0.381965991895E+03    0.56273E-05   -0.13556E-05  3911   0.459E-03    0.196E-02
RMM:  13    -0.381965992571E+03   -0.67641E-06   -0.47606E-06  3043   0.296E-03
   7 F= -.41761797E+03 E0= -.41729877E+03  d E =-.411859E-02
       N       E                     dE             d eps       ncg     rms          rms(c)
DAV:   1    -0.381941533499E+03    0.24458E-01   -0.31223E+00  3920   0.252E+00    0.375E-01
RMM:   2    -0.381955439639E+03   -0.13906E-01   -0.61885E-02  3981   0.386E-01    0.107E+00
RMM:   3    -0.381951567654E+03    0.38720E-02   -0.61180E-03  3974   0.109E-01    0.848E-01
RMM:   4    -0.381951116654E+03    0.45100E-03   -0.33391E-03  3941   0.653E-02    0.935E-01
RMM:   5    -0.381946426359E+03    0.46903E-02   -0.17857E-03  3946   0.850E-02    0.371E-01
RMM:   6    -0.381946527303E+03   -0.10094E-03   -0.61471E-04  3931   0.373E-02    0.267E-01
RMM:   7    -0.381946764650E+03   -0.23735E-03   -0.54222E-04  3932   0.303E-02    0.294E-01
RMM:   8    -0.381946453448E+03    0.31120E-03   -0.30032E-04  3935   0.223E-02    0.165E-01
RMM:   9    -0.381946305801E+03    0.14765E-03   -0.11673E-04  3928   0.146E-02    0.688E-02
RMM:  10    -0.381946296487E+03    0.93142E-05   -0.23108E-05  3929   0.619E-03    0.498E-02
RMM:  11    -0.381946281710E+03    0.14777E-04   -0.11245E-05  3902   0.421E-03    0.253E-02
RMM:  12    -0.381946277352E+03    0.43581E-05   -0.63550E-06  3469   0.313E-03    0.114E-02
RMM:  13    -0.381946278287E+03   -0.93492E-06   -0.20835E-06  2200   0.207E-03
   8 F= -.41761968E+03 E0= -.41730043E+03  d E =-.171728E-02
       N       E                     dE             d eps       ncg     rms          rms(c)
DAV:   1    -0.381932669585E+03    0.13608E-01   -0.12903E+00  3920   0.167E+00    0.278E-01
RMM:   2    -0.381938825148E+03   -0.61556E-02   -0.29633E-02  3980   0.250E-01    0.792E-01
RMM:   3    -0.381934664581E+03    0.41606E-02   -0.33848E-03  3966   0.870E-02    0.318E-01
RMM:   4    -0.381941256370E+03   -0.65918E-02   -0.18041E-03  3979   0.631E-02    0.933E-01
RMM:   5    -0.381934525532E+03    0.67308E-02   -0.80198E-04  3943   0.474E-02    0.226E-01
RMM:   6    -0.381935021306E+03   -0.49577E-03   -0.36883E-04  3930   0.310E-02    0.209E-01
RMM:   7    -0.381935051467E+03   -0.30161E-04   -0.23225E-04  3935   0.201E-02    0.187E-01
RMM:   8    -0.381934960802E+03    0.90665E-04   -0.14123E-04  3936   0.153E-02    0.114E-01
RMM:   9    -0.381934898837E+03    0.61965E-04   -0.60386E-05  3930   0.105E-02    0.445E-02
RMM:  10    -0.381934897372E+03    0.14657E-05   -0.11663E-05  3904   0.458E-03    0.284E-02
RMM:  11    -0.381934893772E+03    0.36002E-05   -0.41511E-06  2807   0.270E-03    0.162E-02
RMM:  12    -0.381934891724E+03    0.20477E-05   -0.21573E-06  2240   0.200E-03    0.640E-03
RMM:  13    -0.381934892197E+03   -0.47301E-06   -0.10614E-06  2105   0.149E-03
   9 F= -.41762055E+03 E0= -.41730129E+03  d E =-.869633E-03
       N       E                     dE             d eps       ncg     rms          rms(c)
DAV:   1    -0.381936087043E+03   -0.11953E-02   -0.18035E-01  3952   0.642E-01    0.106E-01
RMM:   2    -0.381937466736E+03   -0.13797E-02   -0.47149E-03  3984   0.918E-02    0.401E-01
RMM:   3    -0.381937126680E+03    0.34006E-03   -0.72404E-04  3953   0.395E-02    0.359E-01
RMM:   4    -0.381936515900E+03    0.61078E-03   -0.26884E-04  3961   0.326E-02    0.154E-01
RMM:   5    -0.381936401993E+03    0.11391E-03   -0.65182E-05  3945   0.116E-02    0.829E-02
RMM:   6    -0.381936434200E+03   -0.32207E-04   -0.53169E-05  3935   0.993E-03    0.810E-02
RMM:   7    -0.381936429212E+03    0.49883E-05   -0.21983E-05  3920   0.643E-03    0.443E-02
RMM:   8    -0.381936438174E+03   -0.89627E-05   -0.17441E-05  3921   0.553E-03    0.340E-02
RMM:   9    -0.381936437613E+03    0.56181E-06   -0.77933E-06  3789   0.391E-03
  10 F= -.41762141E+03 E0= -.41730220E+03  d E =-.853032E-03
       N       E                     dE             d eps       ncg     rms          rms(c)
DAV:   1    -0.381939894766E+03   -0.34566E-02   -0.20996E+00  3920   0.218E+00    0.339E-01
RMM:   2    -0.381955110351E+03   -0.15216E-01   -0.52021E-02  3983   0.315E-01    0.128E+00
RMM:   3    -0.381950695592E+03    0.44148E-02   -0.72278E-03  3969   0.123E-01    0.107E+00
RMM:   4    -0.381945262685E+03    0.54329E-02   -0.28330E-03  3948   0.987E-02    0.525E-01
RMM:   5    -0.381943705119E+03    0.15576E-02   -0.68127E-04  3954   0.390E-02    0.246E-01
RMM:   6    -0.381944008369E+03   -0.30325E-03   -0.58600E-04  3935   0.333E-02    0.269E-01
RMM:   7    -0.381943835862E+03    0.17251E-03   -0.23476E-04  3929   0.202E-02    0.145E-01
RMM:   8    -0.381943907133E+03   -0.71271E-04   -0.20199E-04  3931   0.191E-02    0.117E-01
RMM:   9    -0.381943887527E+03    0.19606E-04   -0.85040E-05  3928   0.133E-02    0.666E-02
RMM:  10    -0.381943865066E+03    0.22462E-04   -0.21226E-05  3919   0.627E-03    0.297E-02
RMM:  11    -0.381943858723E+03    0.63432E-05   -0.58498E-06  3431   0.313E-03    0.138E-02
RMM:  12    -0.381943858316E+03    0.40702E-06   -0.25346E-06  2267   0.234E-03
  11 F= -.41762350E+03 E0= -.41730444E+03  d E =-.208874E-02
       N       E                     dE             d eps       ncg     rms          rms(c)
DAV:   1    -0.381945615074E+03   -0.17564E-02   -0.19567E-01  3920   0.658E-01    0.105E-01
RMM:   2    -0.381948173301E+03   -0.25582E-02   -0.49951E-03  3981   0.980E-02    0.561E-01
RMM:   3    -0.381946187065E+03    0.19862E-02   -0.84386E-04  3959   0.450E-02    0.286E-01
RMM:   4    -0.381946059472E+03    0.12759E-03   -0.27582E-04  3939   0.319E-02    0.143E-01
RMM:   5    -0.381945939288E+03    0.12018E-03   -0.62831E-05  3952   0.139E-02    0.641E-02
RMM:   6    -0.381945972908E+03   -0.33620E-04   -0.42928E-05  3932   0.894E-03    0.725E-02
RMM:   7    -0.381945964299E+03    0.86086E-05   -0.21531E-05  3922   0.608E-03    0.401E-02
RMM:   8    -0.381945973560E+03   -0.92607E-05   -0.18075E-05  3922   0.571E-03    0.370E-02
RMM:   9    -0.381945968806E+03    0.47535E-05   -0.76885E-06  3790   0.385E-03    0.194E-02
RMM:  10    -0.381945966746E+03    0.20599E-05   -0.16877E-06  2131   0.185E-03    0.899E-03
RMM:  11    -0.381945966281E+03    0.46541E-06   -0.60508E-07  2039   0.107E-03
  12 F= -.41762392E+03 E0= -.41730489E+03  d E =-.426956E-03
       N       E                     dE             d eps       ncg     rms          rms(c)
DAV:   1    -0.381948171881E+03   -0.22051E-02   -0.37485E-01  3920   0.907E-01    0.132E-01
RMM:   2    -0.381951755111E+03   -0.35832E-02   -0.90259E-03  3989   0.135E-01    0.639E-01
RMM:   3    -0.381949295844E+03    0.24593E-02   -0.12590E-03  3958   0.537E-02    0.351E-01
RMM:   4    -0.381949032630E+03    0.26321E-03   -0.44107E-04  3944   0.388E-02    0.194E-01
RMM:   5    -0.381948795449E+03    0.23718E-03   -0.10598E-04  3955   0.173E-02    0.778E-02
RMM:   6    -0.381948855135E+03   -0.59687E-04   -0.74199E-05  3930   0.121E-02    0.895E-02
RMM:   7    -0.381948845969E+03    0.91670E-05   -0.37760E-05  3929   0.799E-03    0.562E-02
RMM:   8    -0.381948856299E+03   -0.10330E-04   -0.34426E-05  3925   0.789E-03    0.471E-02
RMM:   9    -0.381948848163E+03    0.81355E-05   -0.13586E-05  3916   0.512E-03    0.270E-02
RMM:  10    -0.381948844147E+03    0.40157E-05   -0.29294E-06  2408   0.237E-03    0.124E-02
RMM:  11    -0.381948843101E+03    0.10460E-05   -0.10889E-06  2067   0.144E-03    0.559E-03
RMM:  12    -0.381948843111E+03   -0.95606E-08   -0.54253E-07  2051   0.112E-03
  13 F= -.41762440E+03 E0= -.41730540E+03  d E =-.479672E-03
       N       E                     dE             d eps       ncg     rms          rms(c)
DAV:   1    -0.381949848200E+03   -0.10051E-02   -0.72046E-02  3920   0.392E-01    0.576E-02
RMM:   2    -0.381950793861E+03   -0.94566E-03   -0.17075E-03  3984   0.595E-02    0.343E-01
RMM:   3    -0.381949967394E+03    0.82647E-03   -0.27670E-04  3959   0.264E-02    0.142E-01
RMM:   4    -0.381949991037E+03   -0.23643E-04   -0.86050E-05  3940   0.176E-02    0.713E-02
RMM:   5    -0.381949963414E+03    0.27623E-04   -0.20216E-05  3941   0.802E-03    0.290E-02
RMM:   6    -0.381949971002E+03   -0.75875E-05   -0.11913E-05  3917   0.468E-03    0.349E-02
RMM:   7    -0.381949969520E+03    0.14819E-05   -0.68894E-06  3730   0.340E-03    0.235E-02
RMM:   8    -0.381949970785E+03   -0.12653E-05   -0.67427E-06  3726   0.346E-03    0.222E-02
RMM:   9    -0.381949968356E+03    0.24290E-05   -0.24931E-06  2273   0.226E-03    0.114E-02
RMM:  10    -0.381949967706E+03    0.65030E-06   -0.73178E-07  2024   0.126E-03
  14 F= -.41762459E+03 E0= -.41730558E+03  d E =-.183236E-03
       N       E                     dE             d eps       ncg     rms          rms(c)
DAV:   1    -0.381951231231E+03   -0.12629E-02   -0.17638E-01  3920   0.611E-01    0.817E-02
RMM:   2    -0.381952704232E+03   -0.14730E-02   -0.38999E-03  3995   0.918E-02    0.410E-01
RMM:   3    -0.381951647011E+03    0.10572E-02   -0.51376E-04  3964   0.349E-02    0.210E-01
RMM:   4    -0.381951590447E+03    0.56563E-04   -0.17278E-04  3947   0.241E-02    0.108E-01
RMM:   5    -0.381951515846E+03    0.74601E-04   -0.42218E-05  3949   0.107E-02    0.423E-02
RMM:   6    -0.381951533438E+03   -0.17591E-04   -0.25998E-05  3934   0.715E-03    0.494E-02
RMM:   7    -0.381951532428E+03    0.10100E-05   -0.16520E-05  3925   0.522E-03    0.366E-02
RMM:   8    -0.381951534314E+03   -0.18866E-05   -0.16445E-05  3921   0.538E-03    0.329E-02
RMM:   9    -0.381951528725E+03    0.55893E-05   -0.61363E-06  3535   0.331E-03    0.169E-02
RMM:  10    -0.381951527253E+03    0.14724E-05   -0.12324E-06  2071   0.157E-03    0.866E-03
RMM:  11    -0.381951526788E+03    0.46461E-06   -0.54503E-07  2041   0.103E-03
  15 F= -.41762484E+03 E0= -.41730584E+03  d E =-.255842E-03
