       N       E                     dE             d eps       ncg     rms          rms(c)
DAV:   1     0.430939119164E+04    0.43094E+04   -0.26754E+05  3920   0.127E+03
DAV:   2    -0.582105070325E+02   -0.43676E+04   -0.40388E+04  4656   0.279E+02
DAV:   3    -0.392273238588E+03   -0.33406E+03   -0.30036E+03  4608   0.705E+01
DAV:   4    -0.409643954304E+03   -0.17371E+02   -0.16193E+02  5104   0.145E+01
DAV:   5    -0.410120402269E+03   -0.47645E+00   -0.47213E+00  4816   0.250E+00    0.874E+01
RMM:   6    -0.409509955270E+03    0.61045E+00   -0.84460E+01  3937   0.143E+01    0.719E+01
RMM:   7    -0.445795932366E+03   -0.36286E+02   -0.16680E+02  3933   0.132E+01    0.681E+01
RMM:   8    -0.543338283754E+03   -0.97542E+02   -0.11628E+02  3928   0.123E+01    0.951E+01
RMM:   9    -0.483495270412E+03    0.59843E+02   -0.88425E+01  3931   0.980E+00    0.729E+01
RMM:  10    -0.401149261881E+03    0.82346E+02   -0.34517E+01  3923   0.687E+00    0.377E+01
RMM:  11    -0.391352654406E+03    0.97966E+01   -0.38017E+01  3933   0.748E+00    0.316E+01
RMM:  12    -0.383490471730E+03    0.78622E+01   -0.65784E+00  3924   0.325E+00    0.184E+01
RMM:  13    -0.381761292290E+03    0.17292E+01   -0.20173E+00  3940   0.181E+00    0.129E+01
RMM:  14    -0.381108510996E+03    0.65278E+00   -0.12129E+00  3940   0.141E+00    0.810E+00
RMM:  15    -0.380738391038E+03    0.37012E+00   -0.29657E-01  3940   0.702E-01    0.501E+00
RMM:  16    -0.380753296110E+03   -0.14905E-01   -0.31816E-01  3942   0.696E-01    0.571E+00
RMM:  17    -0.380599955910E+03    0.15334E+00   -0.22109E-01  3947   0.637E-01    0.336E+00
RMM:  18    -0.380591157723E+03    0.87982E-02   -0.11992E-01  3942   0.455E-01    0.348E+00
RMM:  19    -0.380547127642E+03    0.44030E-01   -0.47474E-02  3942   0.291E-01    0.216E+00
RMM:  20    -0.380517698795E+03    0.29429E-01   -0.20386E-02  3943   0.188E-01    0.931E-01
RMM:  21    -0.380517018597E+03    0.68020E-03   -0.89060E-03  3942   0.119E-01    0.701E-01
RMM:  22    -0.380514860436E+03    0.21582E-02   -0.37368E-03  3946   0.779E-02    0.494E-01
RMM:  23    -0.380514422820E+03    0.43762E-03   -0.17123E-03  3942   0.523E-02    0.400E-01
RMM:  24    -0.380514453631E+03   -0.30811E-04   -0.15160E-03  3942   0.488E-02    0.350E-01
RMM:  25    -0.380514436344E+03    0.17287E-04   -0.86948E-04  3943   0.374E-02    0.256E-01
RMM:  26    -0.380514544259E+03   -0.10792E-03   -0.26906E-04  3942   0.208E-02    0.202E-01
RMM:  27    -0.380514670062E+03   -0.12580E-03   -0.14895E-04  3940   0.162E-02    0.144E-01
RMM:  28    -0.380514893260E+03   -0.22320E-03   -0.15074E-04  3941   0.151E-02    0.866E-02
RMM:  29    -0.380515048665E+03   -0.15541E-03   -0.53142E-05  3949   0.867E-03    0.758E-02
RMM:  30    -0.380515193879E+03   -0.14521E-03   -0.25221E-05  3936   0.588E-03    0.504E-02
RMM:  31    -0.380515568797E+03   -0.37492E-03   -0.70019E-05  3922   0.982E-03    0.366E-02
RMM:  32    -0.380515748860E+03   -0.18006E-03   -0.28271E-05  3918   0.571E-03    0.418E-02
RMM:  33    -0.380515918028E+03   -0.16917E-03   -0.19252E-05  3779   0.447E-03    0.441E-02
RMM:  34    -0.380516029803E+03   -0.11177E-03   -0.10883E-05  3398   0.334E-03    0.359E-02
RMM:  35    -0.380516133800E+03   -0.10400E-03   -0.94162E-06  3338   0.316E-03    0.184E-02
RMM:  36    -0.380516237561E+03   -0.10376E-03   -0.91290E-06  3287   0.299E-03    0.964E-03
RMM:  37    -0.380516288975E+03   -0.51414E-04   -0.33469E-06  2646   0.179E-03    0.899E-03
RMM:  38    -0.380516346090E+03   -0.57115E-04   -0.32591E-06  2662   0.175E-03    0.134E-02
RMM:  39    -0.380516371794E+03   -0.25704E-04   -0.11590E-06  2285   0.102E-03    0.111E-02
RMM:  40    -0.380516410088E+03   -0.38294E-04   -0.21064E-06  2468   0.119E-03    0.457E-03
RMM:  41    -0.380516425023E+03   -0.14935E-04   -0.75290E-07  2051   0.766E-04    0.254E-03
RMM:  42    -0.380516441105E+03   -0.16082E-04   -0.52633E-07  1789   0.653E-04    0.279E-03
RMM:  43    -0.380516448343E+03   -0.72380E-05   -0.24888E-07  1374   0.495E-04    0.395E-03
RMM:  44    -0.380516455975E+03   -0.76314E-05   -0.22075E-07  1400   0.475E-04    0.139E-03
RMM:  45    -0.380516462836E+03   -0.68611E-05   -0.30922E-07  1681   0.550E-04    0.658E-04
RMM:  46    -0.380516464560E+03   -0.17241E-05   -0.12084E-07  1042   0.400E-04    0.591E-03
RMM:  47    -0.380516465945E+03   -0.13850E-05   -0.50323E-08   741   0.357E-04    0.535E-03
RMM:  48    -0.380516467224E+03   -0.12788E-05   -0.52327E-08   802   0.350E-04    0.727E-04
RMM:  49    -0.380516468122E+03   -0.89844E-06   -0.40865E-08   715   0.350E-04
   1 F= -.41555928E+03 E0= -.41522138E+03  d E =-.415559E+03
       N       E                     dE             d eps       ncg     rms          rms(c)
DAV:   1    -0.380517752394E+03   -0.12852E-02   -0.52133E-01  3968   0.128E+00    0.299E-01
RMM:   2    -0.380522354135E+03   -0.46017E-02   -0.19977E-02  3953   0.179E-01    0.634E-01
RMM:   3    -0.380527294721E+03   -0.49406E-02   -0.44750E-03  3967   0.772E-02    0.105E+00
RMM:   4    -0.380518567179E+03    0.87275E-02   -0.14575E-03  3950   0.474E-02    0.258E-01
RMM:   5    -0.380518408206E+03    0.15897E-03   -0.42806E-04  3942   0.264E-02    0.179E-01
RMM:   6    -0.380518360694E+03    0.47512E-04   -0.25352E-04  3946   0.204E-02    0.146E-01
RMM:   7    -0.380518295478E+03    0.65216E-04   -0.14753E-04  3942   0.158E-02    0.112E-01
RMM:   8    -0.380518264367E+03    0.31110E-04   -0.61456E-05  3934   0.982E-03    0.738E-02
RMM:   9    -0.380518239945E+03    0.24422E-04   -0.29105E-05  3931   0.708E-03    0.327E-02
RMM:  10    -0.380518233543E+03    0.64027E-05   -0.77190E-06  3834   0.370E-03    0.137E-02
RMM:  11    -0.380518234153E+03   -0.61077E-06   -0.16412E-06  2177   0.174E-03
   2 F= -.41556181E+03 E0= -.41522395E+03  d E =-.252806E-02
       N       E                     dE             d eps       ncg     rms          rms(c)
DAV:   1    -0.380518304728E+03   -0.71185E-04   -0.17225E-02  3992   0.184E-01    0.288E-02
RMM:   2    -0.380518342655E+03   -0.37927E-04   -0.32724E-04  3960   0.291E-02    0.419E-02
RMM:   3    -0.380518338733E+03    0.39217E-05   -0.24848E-05  3985   0.684E-03    0.338E-02
RMM:   4    -0.380518379143E+03   -0.40410E-04   -0.16623E-05  3921   0.463E-03    0.751E-02
RMM:   5    -0.380518338086E+03    0.41057E-04   -0.11397E-05  3830   0.387E-03    0.360E-02
RMM:   6    -0.380518332458E+03    0.56285E-05   -0.75244E-06  3807   0.351E-03    0.174E-02
RMM:   7    -0.380518332026E+03    0.43214E-06   -0.32500E-06  2463   0.248E-03
   3 F= -.41556178E+03 E0= -.41522394E+03  d E =0.237461E-04
       N       E                     dE             d eps       ncg     rms          rms(c)
DAV:   1    -0.380515368884E+03    0.29636E-02   -0.93790E-01  3936   0.170E+00    0.381E-01
RMM:   2    -0.380522034491E+03   -0.66656E-02   -0.40376E-02  3968   0.244E-01    0.687E-01
RMM:   3    -0.380523885515E+03   -0.18510E-02   -0.61817E-03  3980   0.930E-02    0.944E-01
RMM:   4    -0.380517772250E+03    0.61133E-02   -0.15510E-03  3949   0.489E-02    0.359E-01
RMM:   5    -0.380517317740E+03    0.45451E-03   -0.77702E-04  3943   0.350E-02    0.250E-01
RMM:   6    -0.380517174361E+03    0.14338E-03   -0.43723E-04  3943   0.268E-02    0.223E-01
RMM:   7    -0.380517039540E+03    0.13482E-03   -0.26019E-04  3945   0.208E-02    0.157E-01
RMM:   8    -0.380516962378E+03    0.77162E-04   -0.16091E-04  3941   0.161E-02    0.874E-02
RMM:   9    -0.380516913699E+03    0.48679E-04   -0.55343E-05  3941   0.992E-03    0.376E-02
RMM:  10    -0.380516904202E+03    0.94973E-05   -0.12023E-05  3910   0.463E-03    0.169E-02
RMM:  11    -0.380516904117E+03    0.85616E-07   -0.18735E-06  2191   0.187E-03
   4 F= -.41556010E+03 E0= -.41522212E+03  d E =0.168689E-02
       N       E                     dE             d eps       ncg     rms          rms(c)
DAV:   1    -0.380481465639E+03    0.35439E-01   -0.15437E+01  3920   0.649E+00    0.123E+00
RMM:   2    -0.380544272274E+03   -0.62807E-01   -0.55683E-01  3960   0.951E-01    0.162E+00
RMM:   3    -0.380524244909E+03    0.20027E-01   -0.43210E-02  3990   0.268E-01    0.112E+00
RMM:   4    -0.380541914123E+03   -0.17669E-01   -0.15823E-02  3950   0.158E-01    0.182E+00
RMM:   5    -0.380557061640E+03   -0.15148E-01   -0.16258E-02  3954   0.138E-01    0.216E+00
RMM:   6    -0.380521361958E+03    0.35700E-01   -0.92271E-03  3950   0.114E-01    0.828E-01
RMM:   7    -0.380518004936E+03    0.33570E-02   -0.43601E-03  3943   0.846E-02    0.432E-01
RMM:   8    -0.380518009964E+03   -0.50280E-05   -0.24560E-03  3943   0.642E-02    0.344E-01
RMM:   9    -0.380517100768E+03    0.90920E-03   -0.86041E-04  3944   0.385E-02    0.146E-01
RMM:  10    -0.380516977491E+03    0.12328E-03   -0.14692E-04  3950   0.157E-02    0.731E-02
RMM:  11    -0.380516962836E+03    0.14655E-04   -0.42802E-05  3939   0.826E-03    0.539E-02
RMM:  12    -0.380516957399E+03    0.54368E-05   -0.29151E-05  3927   0.698E-03    0.479E-02
RMM:  13    -0.380516948631E+03    0.87679E-05   -0.14744E-05  3920   0.497E-03    0.242E-02
RMM:  14    -0.380516951754E+03   -0.31228E-05   -0.78480E-06  3852   0.354E-03    0.191E-02
RMM:  15    -0.380516952608E+03   -0.85413E-06   -0.24597E-06  2257   0.218E-03
   5 F= -.41556410E+03 E0= -.41522545E+03  d E =-.400702E-02
       N       E                     dE             d eps       ncg     rms          rms(c)
DAV:   1    -0.380516008396E+03    0.94336E-03   -0.51883E-01  3960   0.126E+00    0.283E-01
RMM:   2    -0.380519539368E+03   -0.35310E-02   -0.21230E-02  3952   0.181E-01    0.500E-01
RMM:   3    -0.380522489896E+03   -0.29505E-02   -0.35441E-03  3964   0.698E-02    0.838E-01
RMM:   4    -0.380516881061E+03    0.56088E-02   -0.94050E-04  3957   0.375E-02    0.207E-01
RMM:   5    -0.380516842631E+03    0.38430E-04   -0.38276E-04  3944   0.247E-02    0.169E-01
RMM:   6    -0.380516847732E+03   -0.51011E-05   -0.24039E-04  3942   0.198E-02    0.164E-01
RMM:   7    -0.380516761515E+03    0.86218E-04   -0.13201E-04  3950   0.150E-02    0.121E-01
RMM:   8    -0.380516718185E+03    0.43330E-04   -0.72488E-05  3941   0.108E-02    0.630E-02
RMM:   9    -0.380516697912E+03    0.20273E-04   -0.29415E-05  3932   0.721E-03    0.281E-02
RMM:  10    -0.380516693524E+03    0.43874E-05   -0.68009E-06  3711   0.347E-03    0.128E-02
RMM:  11    -0.380516694168E+03   -0.64310E-06   -0.10393E-06  2122   0.139E-03
   6 F= -.41556471E+03 E0= -.41522614E+03  d E =-.609213E-03
       N       E                     dE             d eps       ncg     rms          rms(c)
DAV:   1    -0.380517273997E+03   -0.58047E-03   -0.13835E-02  3968   0.177E-01    0.426E-02
RMM:   2    -0.380517330163E+03   -0.56166E-04   -0.40772E-04  3948   0.286E-02    0.690E-02
RMM:   3    -0.380517315297E+03    0.14866E-04   -0.26997E-05  3985   0.695E-03    0.406E-02
RMM:   4    -0.380517453685E+03   -0.13839E-03   -0.40040E-05  3929   0.693E-03    0.132E-01
RMM:   5    -0.380517327383E+03    0.12630E-03   -0.29652E-05  3911   0.645E-03    0.602E-02
RMM:   6    -0.380517316146E+03    0.11237E-04   -0.16468E-05  3898   0.504E-03    0.373E-02
RMM:   7    -0.380517309744E+03    0.64018E-05   -0.57111E-06  3299   0.306E-03    0.189E-02
RMM:   8    -0.380517308817E+03    0.92779E-06   -0.26807E-06  2345   0.229E-03
   7 F= -.41556489E+03 E0= -.41522634E+03  d E =-.171712E-03
       N       E                     dE             d eps       ncg     rms          rms(c)
DAV:   1    -0.380515807212E+03    0.15025E-02   -0.92155E-01  3936   0.166E+00    0.376E-01
RMM:   2    -0.380520656152E+03   -0.48489E-02   -0.39989E-02  3965   0.241E-01    0.520E-01
RMM:   3    -0.380518600180E+03    0.20560E-02   -0.46255E-03  3980   0.832E-02    0.428E-01
RMM:   4    -0.380518485804E+03    0.11438E-03   -0.71413E-04  3954   0.320E-02    0.380E-01
RMM:   5    -0.380518280434E+03    0.20537E-03   -0.85722E-04  3943   0.343E-02    0.347E-01
RMM:   6    -0.380517788700E+03    0.49173E-03   -0.55886E-04  3943   0.298E-02    0.260E-01
RMM:   7    -0.380517555377E+03    0.23332E-03   -0.31186E-04  3945   0.227E-02    0.172E-01
RMM:   8    -0.380517455742E+03    0.99635E-04   -0.15426E-04  3940   0.158E-02    0.884E-02
RMM:   9    -0.380517402636E+03    0.53106E-04   -0.60456E-05  3944   0.103E-02    0.404E-02
RMM:  10    -0.380517393716E+03    0.89205E-05   -0.11653E-05  3913   0.443E-03    0.221E-02
RMM:  11    -0.380517392176E+03    0.15396E-05   -0.22802E-06  2230   0.204E-03    0.144E-02
RMM:  12    -0.380517391962E+03    0.21439E-06   -0.16419E-06  2173   0.181E-03
   8 F= -.41556499E+03 E0= -.41522631E+03  d E =-.107588E-03
       N       E                     dE             d eps       ncg     rms          rms(c)
DAV:   1    -0.380499075499E+03    0.18317E-01   -0.96403E+00  3920   0.505E+00    0.850E-01
RMM:   2    -0.380534267283E+03   -0.35192E-01   -0.32647E-01  3961   0.736E-01    0.121E+00
RMM:   3    -0.380550950666E+03   -0.16683E-01   -0.25254E-02  3991   0.201E-01    0.186E+00
RMM:   4    -0.380531839031E+03    0.19112E-01   -0.11757E-02  3947   0.124E-01    0.118E+00
RMM:   5    -0.380524168116E+03    0.76709E-02   -0.58523E-03  3944   0.975E-02    0.796E-01
RMM:   6    -0.380521716825E+03    0.24513E-02   -0.30525E-03  3948   0.713E-02    0.510E-01
RMM:   7    -0.380521305725E+03    0.41110E-03   -0.21274E-03  3942   0.589E-02    0.387E-01
RMM:   8    -0.380521054135E+03    0.25159E-03   -0.12157E-03  3943   0.451E-02    0.336E-01
RMM:   9    -0.380520424015E+03    0.63012E-03   -0.45641E-04  3945   0.281E-02    0.113E-01
RMM:  10    -0.380520333465E+03    0.90551E-04   -0.94104E-05  3950   0.125E-02    0.495E-02
RMM:  11    -0.380520329010E+03    0.44545E-05   -0.34288E-05  3932   0.751E-03    0.422E-02
RMM:  12    -0.380520317513E+03    0.11497E-04   -0.22027E-05  3923   0.609E-03    0.255E-02
RMM:  13    -0.380520317200E+03    0.31354E-06   -0.77662E-06  3845   0.356E-03
   9 F= -.41557156E+03 E0= -.41523261E+03  d E =-.656721E-02
       N       E                     dE             d eps       ncg     rms          rms(c)
DAV:   1    -0.380517564440E+03    0.27531E-02   -0.51815E-01  3936   0.125E+00    0.279E-01
RMM:   2    -0.380520610961E+03   -0.30465E-02   -0.21423E-02  3954   0.180E-01    0.444E-01
RMM:   3    -0.380522149702E+03   -0.15387E-02   -0.30844E-03  3968   0.659E-02    0.688E-01
RMM:   4    -0.380518543655E+03    0.36060E-02   -0.71878E-04  3958   0.323E-02    0.217E-01
RMM:   5    -0.380518570920E+03   -0.27265E-04   -0.41792E-04  3943   0.255E-02    0.209E-01
RMM:   6    -0.380518553635E+03    0.17285E-04   -0.26871E-04  3943   0.205E-02    0.204E-01
RMM:   7    -0.380518375686E+03    0.17795E-03   -0.18583E-04  3942   0.177E-02    0.104E-01
RMM:   8    -0.380518341152E+03    0.34534E-04   -0.85823E-05  3943   0.119E-02    0.589E-02
RMM:   9    -0.380518323307E+03    0.17845E-04   -0.26902E-05  3931   0.691E-03    0.339E-02
RMM:  10    -0.380518318048E+03    0.52598E-05   -0.61851E-06  3618   0.328E-03    0.184E-02
RMM:  11    -0.380518316808E+03    0.12400E-05   -0.15360E-06  2122   0.171E-03    0.955E-03
RMM:  12    -0.380518317481E+03   -0.67383E-06   -0.84000E-07  2093   0.127E-03
  10 F= -.41557044E+03 E0= -.41523158E+03  d E =0.111714E-02
       N       E                     dE             d eps       ncg     rms          rms(c)
DAV:   1    -0.380518560282E+03   -0.24347E-03   -0.68075E-03  3968   0.128E-01    0.306E-02
RMM:   2    -0.380518618840E+03   -0.58558E-04   -0.20197E-04  3951   0.200E-02    0.832E-02
RMM:   3    -0.380518580201E+03    0.38639E-04   -0.11688E-05  3893   0.460E-03    0.439E-02
RMM:   4    -0.380518591120E+03   -0.10919E-04   -0.55670E-06  3247   0.303E-03    0.517E-02
RMM:   5    -0.380518587927E+03    0.31930E-05   -0.86470E-06  3871   0.369E-03    0.480E-02
RMM:   6    -0.380518579856E+03    0.80709E-05   -0.59757E-06  3512   0.313E-03    0.293E-02
RMM:   7    -0.380518577108E+03    0.27477E-05   -0.42307E-06  2789   0.266E-03    0.182E-02
RMM:   8    -0.380518575486E+03    0.16227E-05   -0.17370E-06  2173   0.193E-03    0.625E-03
RMM:   9    -0.380518575348E+03    0.13747E-06   -0.40965E-07  2038   0.927E-04
  11 F= -.41557041E+03 E0= -.41523156E+03  d E =0.321570E-04
       N       E                     dE             d eps       ncg     rms          rms(c)
DAV:   1    -0.380519734500E+03   -0.11590E-02   -0.68197E-01  3936   0.142E+00    0.282E-01
RMM:   2    -0.380522946227E+03   -0.32117E-02   -0.28180E-02  3952   0.203E-01    0.408E-01
RMM:   3    -0.380521485506E+03    0.14607E-02   -0.24527E-03  3968   0.618E-02    0.270E-01
RMM:   4    -0.380522550275E+03   -0.10648E-02   -0.63317E-04  3961   0.290E-02    0.423E-01
RMM:   5    -0.380521571231E+03    0.97904E-03   -0.63530E-04  3948   0.289E-02    0.280E-01
RMM:   6    -0.380521250706E+03    0.32053E-03   -0.32809E-04  3946   0.229E-02    0.189E-01
RMM:   7    -0.380521119037E+03    0.13167E-03   -0.20719E-04  3942   0.185E-02    0.115E-01
RMM:   8    -0.380521084203E+03    0.34834E-04   -0.10502E-04  3940   0.132E-02    0.693E-02
RMM:   9    -0.380521053106E+03    0.31097E-04   -0.38930E-05  3934   0.833E-03    0.375E-02
RMM:  10    -0.380521044894E+03    0.82115E-05   -0.81849E-06  3874   0.372E-03    0.158E-02
RMM:  11    -0.380521044189E+03    0.70487E-06   -0.17669E-06  2099   0.182E-03
  12 F= -.41557276E+03 E0= -.41523385E+03  d E =-.234660E-02
       N       E                     dE             d eps       ncg     rms          rms(c)
DAV:   1    -0.380512791331E+03    0.82536E-02   -0.39240E+00  3920   0.320E+00    0.519E-01
RMM:   2    -0.380524887568E+03   -0.12096E-01   -0.11699E-01  3956   0.453E-01    0.585E-01
RMM:   3    -0.380525529847E+03   -0.64228E-03   -0.72416E-03  3976   0.111E-01    0.629E-01
RMM:   4    -0.380543853397E+03   -0.18324E-01   -0.64701E-03  3960   0.872E-02    0.158E+00
RMM:   5    -0.380523648961E+03    0.20204E-01   -0.39019E-03  3940   0.731E-02    0.535E-01
RMM:   6    -0.380522627854E+03    0.10211E-02   -0.12685E-03  3943   0.458E-02    0.334E-01
RMM:   7    -0.380522471621E+03    0.15623E-03   -0.77145E-04  3943   0.349E-02    0.281E-01
RMM:   8    -0.380522096160E+03    0.37546E-03   -0.43349E-04  3945   0.275E-02    0.138E-01
RMM:   9    -0.380521974264E+03    0.12190E-03   -0.12621E-04  3943   0.146E-02    0.381E-02
RMM:  10    -0.380521967164E+03    0.71006E-05   -0.25304E-05  3942   0.639E-03    0.277E-02
RMM:  11    -0.380521961965E+03    0.51990E-05   -0.95937E-06  3915   0.409E-03    0.177E-02
RMM:  12    -0.380521962673E+03   -0.70850E-06   -0.38632E-06  2727   0.261E-03
  13 F= -.41557625E+03 E0= -.41523759E+03  d E =-.349684E-02
       N       E                     dE             d eps       ncg     rms          rms(c)
DAV:   1    -0.380519068348E+03    0.28936E-02   -0.51934E-01  3928   0.124E+00    0.280E-01
RMM:   2    -0.380521734808E+03   -0.26665E-02   -0.21414E-02  3957   0.179E-01    0.400E-01
RMM:   3    -0.380520350427E+03    0.13844E-02   -0.25354E-03  3973   0.614E-02    0.302E-01
RMM:   4    -0.380520762105E+03   -0.41168E-03   -0.49795E-04  3952   0.269E-02    0.337E-01
RMM:   5    -0.380520561265E+03    0.20084E-03   -0.55690E-04  3943   0.265E-02    0.308E-01
RMM:   6    -0.380520091218E+03    0.47005E-03   -0.31545E-04  3944   0.219E-02    0.202E-01
RMM:   7    -0.380519922788E+03    0.16843E-03   -0.19980E-04  3942   0.183E-02    0.110E-01
RMM:   8    -0.380519882136E+03    0.40653E-04   -0.86137E-05  3942   0.119E-02    0.609E-02
RMM:   9    -0.380519862134E+03    0.20002E-04   -0.27074E-05  3933   0.694E-03    0.350E-02
RMM:  10    -0.380519856285E+03    0.58490E-05   -0.64094E-06  3684   0.333E-03    0.179E-02
RMM:  11    -0.380519855240E+03    0.10452E-05   -0.15266E-06  2106   0.170E-03    0.107E-02
RMM:  12    -0.380519855860E+03   -0.61978E-06   -0.82548E-07  2085   0.125E-03
  14 F= -.41557494E+03 E0= -.41523637E+03  d E =0.131352E-02
       N       E                     dE             d eps       ncg     rms          rms(c)
DAV:   1    -0.380519878440E+03   -0.23200E-04   -0.37537E-03  4000   0.889E-02    0.171E-02
RMM:   2    -0.380519894367E+03   -0.15927E-04   -0.92075E-05  3959   0.143E-02    0.391E-02
RMM:   3    -0.380519890289E+03    0.40777E-05   -0.65982E-06  3385   0.340E-03    0.262E-02
RMM:   4    -0.380519891726E+03   -0.14374E-05   -0.37252E-06  2636   0.244E-03    0.294E-02
RMM:   5    -0.380519888834E+03    0.28927E-05   -0.32802E-06  2485   0.249E-03    0.247E-02
RMM:   6    -0.380519887117E+03    0.17162E-05   -0.23540E-06  2284   0.221E-03    0.168E-02
RMM:   7    -0.380519886232E+03    0.88520E-06   -0.11960E-06  2104   0.159E-03
  15 F= -.41557493E+03 E0= -.41523636E+03  d E =0.127030E-04
       N       E                     dE             d eps       ncg     rms          rms(c)
DAV:   1    -0.380520082828E+03   -0.19571E-03   -0.48978E-01  3936   0.117E+00    0.222E-01
RMM:   2    -0.380522131354E+03   -0.20485E-02   -0.18743E-02  3955   0.169E-01    0.296E-01
RMM:   3    -0.380521486844E+03    0.64451E-03   -0.16510E-03  3969   0.505E-02    0.251E-01
RMM:   4    -0.380521691904E+03   -0.20506E-03   -0.35373E-04  3970   0.220E-02    0.281E-01
RMM:   5    -0.380521293636E+03    0.39827E-03   -0.33234E-04  3945   0.215E-02    0.191E-01
RMM:   6    -0.380521175238E+03    0.11840E-03   -0.19255E-04  3947   0.176E-02    0.147E-01
RMM:   7    -0.380521102593E+03    0.72644E-04   -0.12179E-04  3943   0.142E-02    0.918E-02
RMM:   8    -0.380521082084E+03    0.20509E-04   -0.64514E-05  3942   0.103E-02    0.575E-02
RMM:   9    -0.380521060097E+03    0.21987E-04   -0.25146E-05  3925   0.669E-03    0.274E-02
RMM:  10    -0.380521055737E+03    0.43593E-05   -0.44007E-06  2964   0.281E-03    0.117E-02
RMM:  11    -0.380521055381E+03    0.35641E-06   -0.12038E-06  2032   0.152E-03
  16 F= -.41557657E+03 E0= -.41523793E+03  d E =-.163976E-02
       N       E                     dE             d eps       ncg     rms          rms(c)
DAV:   1    -0.380487243285E+03    0.33812E-01   -0.11745E+01  3920   0.533E+00    0.832E-01
RMM:   2    -0.380523937474E+03   -0.36694E-01   -0.30785E-01  3962   0.773E-01    0.117E+00
RMM:   3    -0.380533777225E+03   -0.98398E-02   -0.31984E-02  3989   0.223E-01    0.174E+00
RMM:   4    -0.380519393285E+03    0.14384E-01   -0.90984E-03  3964   0.114E-01    0.108E+00
RMM:   5    -0.380513958171E+03    0.54351E-02   -0.64931E-03  3952   0.982E-02    0.826E-01
RMM:   6    -0.380510512568E+03    0.34456E-02   -0.24697E-03  3955   0.637E-02    0.480E-01
RMM:   7    -0.380509749090E+03    0.76348E-03   -0.16622E-03  3941   0.529E-02    0.332E-01
RMM:   8    -0.380509801466E+03   -0.52375E-04   -0.12698E-03  3944   0.455E-02    0.300E-01
RMM:   9    -0.380509282134E+03    0.51933E-03   -0.54548E-04  3943   0.305E-02    0.133E-01
RMM:  10    -0.380509169221E+03    0.11291E-03   -0.13267E-04  3942   0.149E-02    0.506E-02
RMM:  11    -0.380509158995E+03    0.10225E-04   -0.32543E-05  3940   0.727E-03    0.362E-02
RMM:  12    -0.380509156894E+03    0.21010E-05   -0.17692E-05  3925   0.542E-03    0.408E-02
RMM:  13    -0.380509148116E+03    0.87787E-05   -0.10493E-05  3912   0.416E-03    0.171E-02
RMM:  14    -0.380509147433E+03    0.68299E-06   -0.55309E-06  3397   0.308E-03
  17 F= -.41557624E+03 E0= -.41523792E+03  d E =0.326647E-03
       N       E                     dE             d eps       ncg     rms          rms(c)
DAV:   1    -0.380507445427E+03    0.17027E-02   -0.51972E-01  3928   0.124E+00    0.285E-01
RMM:   2    -0.380510411598E+03   -0.29662E-02   -0.21792E-02  3956   0.180E-01    0.431E-01
RMM:   3    -0.380510927829E+03   -0.51623E-03   -0.31045E-03  3970   0.662E-02    0.587E-01
RMM:   4    -0.380508439215E+03    0.24886E-02   -0.57785E-04  3957   0.293E-02    0.218E-01
RMM:   5    -0.380508466174E+03   -0.26959E-04   -0.41574E-04  3941   0.253E-02    0.205E-01
RMM:   6    -0.380508438955E+03    0.27219E-04   -0.28583E-04  3942   0.213E-02    0.204E-01
RMM:   7    -0.380508273713E+03    0.16524E-03   -0.16318E-04  3945   0.166E-02    0.116E-01
RMM:   8    -0.380508227826E+03    0.45887E-04   -0.83964E-05  3941   0.116E-02    0.619E-02
RMM:   9    -0.380508204242E+03    0.23585E-04   -0.28983E-05  3929   0.716E-03    0.277E-02
RMM:  10    -0.380508199946E+03    0.42955E-05   -0.64614E-06  3662   0.338E-03    0.146E-02
RMM:  11    -0.380508199482E+03    0.46396E-06   -0.10630E-06  2103   0.141E-03
  18 F= -.41557593E+03 E0= -.41523771E+03  d E =0.315089E-03
       N       E                     dE             d eps       ncg     rms          rms(c)
DAV:   1    -0.380508284563E+03   -0.84617E-04   -0.30234E-03  4000   0.821E-02    0.152E-02
RMM:   2    -0.380508314053E+03   -0.29490E-04   -0.78192E-05  3949   0.130E-02    0.573E-02
RMM:   3    -0.380508301249E+03    0.12803E-04   -0.10791E-05  3889   0.410E-03    0.382E-02
RMM:   4    -0.380508291358E+03    0.98914E-05   -0.31472E-06  2502   0.224E-03    0.156E-02
RMM:   5    -0.380508291129E+03    0.22869E-06   -0.21419E-06  2214   0.206E-03
  19 F= -.41557590E+03 E0= -.41523767E+03  d E =0.305223E-04
       N       E                     dE             d eps       ncg     rms          rms(c)
DAV:   1    -0.380506883840E+03    0.14075E-02   -0.45019E-01  3928   0.112E+00    0.229E-01
RMM:   2    -0.380508793327E+03   -0.19095E-02   -0.17210E-02  3963   0.164E-01    0.292E-01
RMM:   3    -0.380507955357E+03    0.83797E-03   -0.17142E-03  3978   0.517E-02    0.199E-01
RMM:   4    -0.380508421043E+03   -0.46569E-03   -0.35312E-04  3965   0.229E-02    0.281E-01
RMM:   5    -0.380508494883E+03   -0.73839E-04   -0.41516E-04  3957   0.222E-02    0.302E-01
RMM:   6    -0.380507866454E+03    0.62843E-03   -0.24927E-04  3947   0.195E-02    0.139E-01
RMM:   7    -0.380507813021E+03    0.53433E-04   -0.13387E-04  3947   0.148E-02    0.104E-01
RMM:   8    -0.380507786248E+03    0.26773E-04   -0.59492E-05  3946   0.986E-03    0.680E-02
RMM:   9    -0.380507761452E+03    0.24795E-04   -0.25132E-05  3930   0.659E-03    0.343E-02
RMM:  10    -0.380507753818E+03    0.76340E-05   -0.68533E-06  3721   0.341E-03    0.120E-02
RMM:  11    -0.380507753369E+03    0.44968E-06   -0.12925E-06  2066   0.156E-03
  20 F= -.41557644E+03 E0= -.41523814E+03  d E =-.547562E-03
       N       E                     dE             d eps       ncg     rms          rms(c)
DAV:   1    -0.380499894455E+03    0.78594E-02   -0.15057E+00  3920   0.189E+00    0.277E-01
RMM:   2    -0.380505513492E+03   -0.56190E-02   -0.41364E-02  3960   0.283E-01    0.514E-01
RMM:   3    -0.380508498283E+03   -0.29848E-02   -0.46292E-03  3987   0.834E-02    0.832E-01
RMM:   4    -0.380502957456E+03    0.55408E-02   -0.12537E-03  3957   0.436E-02    0.227E-01
RMM:   5    -0.380502844922E+03    0.11253E-03   -0.54013E-04  3954   0.297E-02    0.210E-01
RMM:   6    -0.380502712211E+03    0.13271E-03   -0.22956E-04  3957   0.195E-02    0.156E-01
RMM:   7    -0.380502655954E+03    0.56256E-04   -0.16435E-04  3943   0.167E-02    0.114E-01
RMM:   8    -0.380502672308E+03   -0.16353E-04   -0.16040E-04  3944   0.163E-02    0.981E-02
RMM:   9    -0.380502620771E+03    0.51536E-04   -0.76179E-05  3944   0.115E-02    0.511E-02
RMM:  10    -0.380502605331E+03    0.15441E-04   -0.18894E-05  3922   0.564E-03    0.193E-02
RMM:  11    -0.380502603336E+03    0.19950E-05   -0.47823E-06  3139   0.289E-03    0.120E-02
RMM:  12    -0.380502602621E+03    0.71504E-06   -0.30839E-06  2321   0.242E-03
  21 F= -.41557672E+03 E0= -.41523846E+03  d E =-.272321E-03
       N       E                     dE             d eps       ncg     rms          rms(c)
DAV:   1    -0.380501599920E+03    0.10034E-02   -0.52025E-01  3936   0.125E+00    0.288E-01
RMM:   2    -0.380504554110E+03   -0.29542E-02   -0.21759E-02  3955   0.182E-01    0.436E-01
RMM:   3    -0.380503295213E+03    0.12589E-02   -0.28937E-03  3969   0.653E-02    0.379E-01
RMM:   4    -0.380503045117E+03    0.25010E-03   -0.49768E-04  3958   0.270E-02    0.307E-01
RMM:   5    -0.380502748163E+03    0.29695E-03   -0.48688E-04  3942   0.260E-02    0.240E-01
RMM:   6    -0.380502576763E+03    0.17140E-03   -0.29715E-04  3943   0.216E-02    0.204E-01
RMM:   7    -0.380502413592E+03    0.16317E-03   -0.16798E-04  3947   0.168E-02    0.119E-01
RMM:   8    -0.380502364334E+03    0.49258E-04   -0.85448E-05  3942   0.117E-02    0.623E-02
RMM:   9    -0.380502342541E+03    0.21793E-04   -0.30145E-05  3929   0.730E-03    0.314E-02
RMM:  10    -0.380502337105E+03    0.54356E-05   -0.72193E-06  3793   0.355E-03    0.168E-02
RMM:  11    -0.380502336366E+03    0.73882E-06   -0.12454E-06  2113   0.152E-03
  22 F= -.41557692E+03 E0= -.41523877E+03  d E =-.208949E-03
       N       E                     dE             d eps       ncg     rms          rms(c)
DAV:   1    -0.380502206360E+03    0.13074E-03   -0.63900E-03  3968   0.123E-01    0.320E-02
RMM:   2    -0.380502299545E+03   -0.93185E-04   -0.22801E-04  3955   0.208E-02    0.107E-01
RMM:   3    -0.380502230607E+03    0.68938E-04   -0.18853E-05  3959   0.556E-03    0.498E-02
RMM:   4    -0.380502233559E+03   -0.29522E-05   -0.79833E-06  3807   0.359E-03    0.474E-02
RMM:   5    -0.380502236497E+03   -0.29378E-05   -0.12118E-05  3905   0.442E-03    0.540E-02
RMM:   6    -0.380502225937E+03    0.10560E-04   -0.10166E-05  3873   0.397E-03    0.328E-02
RMM:   7    -0.380502221224E+03    0.47129E-05   -0.42384E-06  2780   0.272E-03    0.139E-02
RMM:   8    -0.380502221064E+03    0.16002E-06   -0.18774E-06  2198   0.199E-03
  23 F= -.41557694E+03 E0= -.41523877E+03  d E =-.127511E-04
       N       E                     dE             d eps       ncg     rms          rms(c)
DAV:   1    -0.380502137473E+03    0.83751E-04   -0.65180E-01  3920   0.138E+00    0.309E-01
RMM:   2    -0.380505828944E+03   -0.36915E-02   -0.28197E-02  3964   0.202E-01    0.453E-01
RMM:   3    -0.380506615162E+03   -0.78622E-03   -0.36808E-03  3978   0.719E-02    0.635E-01
RMM:   4    -0.380503926152E+03    0.26890E-02   -0.84308E-04  3957   0.351E-02    0.278E-01
RMM:   5    -0.380503735174E+03    0.19098E-03   -0.61516E-04  3942   0.307E-02    0.224E-01
RMM:   6    -0.380503570827E+03    0.16435E-03   -0.32992E-04  3941   0.233E-02    0.170E-01
RMM:   7    -0.380503475259E+03    0.95568E-04   -0.16130E-04  3952   0.165E-02    0.121E-01
RMM:   8    -0.380503441720E+03    0.33538E-04   -0.99678E-05  3940   0.127E-02    0.746E-02
RMM:   9    -0.380503403902E+03    0.37818E-04   -0.36978E-05  3929   0.803E-03    0.321E-02
RMM:  10    -0.380503397730E+03    0.61723E-05   -0.78358E-06  3847   0.369E-03    0.156E-02
RMM:  11    -0.380503396682E+03    0.10481E-05   -0.13625E-06  2100   0.160E-03    0.858E-03
RMM:  12    -0.380503396903E+03   -0.22064E-06   -0.10950E-06  2094   0.148E-03
  24 F= -.41557778E+03 E0= -.41523948E+03  d E =-.841617E-03
       N       E                     dE             d eps       ncg     rms          rms(c)
DAV:   1    -0.380502089541E+03    0.13071E-02   -0.91807E-01  3920   0.147E+00    0.265E-01
RMM:   2    -0.380504425888E+03   -0.23363E-02   -0.22864E-02  3953   0.220E-01    0.305E-01
RMM:   3    -0.380504094723E+03    0.33117E-03   -0.14962E-03  3990   0.530E-02    0.167E-01
RMM:   4    -0.380509269540E+03   -0.51748E-02   -0.14940E-03  3962   0.436E-02    0.789E-01
RMM:   5    -0.380504530548E+03    0.47390E-02   -0.95285E-04  3955   0.336E-02    0.318E-01
RMM:   6    -0.380504092059E+03    0.43849E-03   -0.36262E-04  3942   0.241E-02    0.192E-01
RMM:   7    -0.380503968030E+03    0.12403E-03   -0.19859E-04  3942   0.180E-02    0.111E-01
RMM:   8    -0.380503912220E+03    0.55809E-04   -0.10878E-04  3931   0.138E-02    0.538E-02
RMM:   9    -0.380503893474E+03    0.18746E-04   -0.27160E-05  3937   0.669E-03    0.302E-02
RMM:  10    -0.380503887860E+03    0.56140E-05   -0.61295E-06  3571   0.324E-03    0.141E-02
RMM:  11    -0.380503887568E+03    0.29260E-06   -0.27203E-06  2301   0.223E-03
  25 F= -.41557899E+03 E0= -.41524059E+03  d E =-.121113E-02
       N       E                     dE             d eps       ncg     rms          rms(c)
DAV:   1    -0.380502872692E+03    0.10152E-02   -0.51968E-01  3936   0.125E+00    0.283E-01
RMM:   2    -0.380506053453E+03   -0.31808E-02   -0.21510E-02  3954   0.181E-01    0.460E-01
RMM:   3    -0.380508010719E+03   -0.19573E-02   -0.33130E-03  3969   0.680E-02    0.735E-01
RMM:   4    -0.380503821604E+03    0.41891E-02   -0.77032E-04  3956   0.337E-02    0.216E-01
RMM:   5    -0.380503839797E+03   -0.18193E-04   -0.39917E-04  3943   0.251E-02    0.200E-01
RMM:   6    -0.380503853330E+03   -0.13533E-04   -0.27068E-04  3941   0.206E-02    0.210E-01
RMM:   7    -0.380503673615E+03    0.17971E-03   -0.17686E-04  3942   0.173E-02    0.113E-01
RMM:   8    -0.380503630618E+03    0.42997E-04   -0.86177E-05  3942   0.119E-02    0.617E-02
RMM:   9    -0.380503611315E+03    0.19304E-04   -0.29138E-05  3931   0.716E-03    0.359E-02
RMM:  10    -0.380503604417E+03    0.68980E-05   -0.76649E-06  3847   0.364E-03    0.175E-02
RMM:  11    -0.380503603311E+03    0.11056E-05   -0.15140E-06  2137   0.169E-03    0.981E-03
RMM:  12    -0.380503604075E+03   -0.76366E-06   -0.89581E-07  2101   0.130E-03
  26 F= -.41557923E+03 E0= -.41524093E+03  d E =-.244792E-03
       N       E                     dE             d eps       ncg     rms          rms(c)
DAV:   1    -0.380503679611E+03   -0.76300E-04   -0.42384E-03  3984   0.947E-02    0.244E-02
RMM:   2    -0.380503713617E+03   -0.34006E-04   -0.11895E-04  3946   0.159E-02    0.662E-02
RMM:   3    -0.380503693158E+03    0.20459E-04   -0.71434E-06  3472   0.369E-03    0.380E-02
RMM:   4    -0.380503699793E+03   -0.66355E-05   -0.34097E-06  2541   0.245E-03    0.449E-02
RMM:   5    -0.380503700908E+03   -0.11149E-05   -0.80273E-06  3870   0.364E-03    0.470E-02
RMM:   6    -0.380503691825E+03    0.90831E-05   -0.52399E-06  3296   0.294E-03    0.232E-02
RMM:   7    -0.380503690000E+03    0.18251E-05   -0.27638E-06  2352   0.224E-03    0.132E-02
RMM:   8    -0.380503689563E+03    0.43719E-06   -0.11693E-06  2113   0.159E-03
  27 F= -.41557922E+03 E0= -.41524092E+03  d E =0.140650E-04
       N       E                     dE             d eps       ncg     rms          rms(c)
DAV:   1    -0.380502477129E+03    0.12129E-02   -0.61680E-01  3936   0.134E+00    0.307E-01
RMM:   2    -0.380505721444E+03   -0.32443E-02   -0.26362E-02  3964   0.198E-01    0.423E-01
RMM:   3    -0.380505328948E+03    0.39250E-03   -0.32887E-03  3978   0.699E-02    0.489E-01
RMM:   4    -0.380504113464E+03    0.12155E-02   -0.58095E-04  3954   0.290E-02    0.280E-01
RMM:   5    -0.380504186706E+03   -0.73243E-04   -0.57966E-04  3943   0.289E-02    0.297E-01
RMM:   6    -0.380503851361E+03    0.33535E-03   -0.35422E-04  3945   0.237E-02    0.209E-01
RMM:   7    -0.380503681672E+03    0.16969E-03   -0.26093E-04  3942   0.207E-02    0.129E-01
RMM:   8    -0.380503627403E+03    0.54269E-04   -0.10942E-04  3942   0.134E-02    0.727E-02
RMM:   9    -0.380503594521E+03    0.32883E-04   -0.39331E-05  3933   0.828E-03    0.384E-02
RMM:  10    -0.380503585990E+03    0.85301E-05   -0.93834E-06  3896   0.399E-03    0.171E-02
RMM:  11    -0.380503584649E+03    0.13415E-05   -0.17772E-06  2141   0.182E-03    0.927E-03
RMM:  12    -0.380503584936E+03   -0.28663E-06   -0.11557E-06  2099   0.151E-03
  28 F= -.41557920E+03 E0= -.41524078E+03  d E =0.216088E-04
       N       E                     dE             d eps       ncg     rms          rms(c)
DAV:   1    -0.380503207257E+03    0.37739E-03   -0.53035E-02  3920   0.344E-01    0.446E-02
RMM:   2    -0.380503317503E+03   -0.11025E-03   -0.11059E-03  3956   0.511E-02    0.465E-02
RMM:   3    -0.380503322785E+03   -0.52825E-05   -0.75239E-05  4004   0.120E-02    0.594E-02
RMM:   4    -0.380503337663E+03   -0.14878E-04   -0.27234E-05  3953   0.662E-03    0.673E-02
RMM:   5    -0.380503347692E+03   -0.10029E-04   -0.22267E-05  3911   0.510E-03    0.771E-02
RMM:   6    -0.380503301687E+03    0.46006E-04   -0.11676E-05  3890   0.421E-03    0.217E-02
RMM:   7    -0.380503302027E+03   -0.34057E-06   -0.73300E-06  3841   0.353E-03
  29 F= -.41557924E+03 E0= -.41524081E+03  d E =-.392635E-04
       N       E                     dE             d eps       ncg     rms          rms(c)
DAV:   1    -0.380502346244E+03    0.95544E-03   -0.51993E-01  3936   0.125E+00    0.286E-01
RMM:   2    -0.380505442299E+03   -0.30961E-02   -0.21591E-02  3954   0.181E-01    0.449E-01
RMM:   3    -0.380506618810E+03   -0.11765E-02   -0.32423E-03  3968   0.677E-02    0.664E-01
RMM:   4    -0.380503272417E+03    0.33464E-02   -0.65148E-04  3958   0.312E-02    0.210E-01
RMM:   5    -0.380503304778E+03   -0.32360E-04   -0.39863E-04  3942   0.249E-02    0.192E-01
RMM:   6    -0.380503249083E+03    0.55694E-04   -0.27098E-04  3942   0.209E-02    0.171E-01
RMM:   7    -0.380503148706E+03    0.10038E-03   -0.14836E-04  3949   0.158E-02    0.123E-01
RMM:   8    -0.380503102459E+03    0.46247E-04   -0.73169E-05  3941   0.108E-02    0.677E-02
RMM:   9    -0.380503079527E+03    0.22932E-04   -0.30798E-05  3927   0.730E-03    0.385E-02
RMM:  10    -0.380503071643E+03    0.78846E-05   -0.88285E-06  3881   0.388E-03    0.174E-02
RMM:  11    -0.380503070415E+03    0.12282E-05   -0.15921E-06  2133   0.173E-03    0.941E-03
RMM:  12    -0.380503070863E+03   -0.44850E-06   -0.90645E-07  2095   0.133E-03
  30 F= -.41557949E+03 E0= -.41524116E+03  d E =-.256770E-03
       N       E                     dE             d eps       ncg     rms          rms(c)
DAV:   1    -0.380503004715E+03    0.65700E-04   -0.45022E-03  3936   0.933E-02    0.194E-02
RMM:   2    -0.380503026975E+03   -0.22260E-04   -0.10144E-04  3942   0.153E-02    0.562E-02
RMM:   3    -0.380503013878E+03    0.13097E-04   -0.66089E-06  3277   0.366E-03    0.268E-02
RMM:   4    -0.380503023650E+03   -0.97716E-05   -0.32326E-06  2498   0.231E-03    0.427E-02
RMM:   5    -0.380503017624E+03    0.60260E-05   -0.41194E-06  2768   0.258E-03    0.338E-02
RMM:   6    -0.380503014499E+03    0.31244E-05   -0.41061E-06  2781   0.270E-03    0.221E-02
RMM:   7    -0.380503012709E+03    0.17901E-05   -0.20680E-06  2221   0.205E-03    0.112E-02
RMM:   8    -0.380503012717E+03   -0.78144E-08   -0.10335E-06  2091   0.152E-03
  31 F= -.41557949E+03 E0= -.41524115E+03  d E =0.314011E-05
       N       E                     dE             d eps       ncg     rms          rms(c)
DAV:   1    -0.380501707879E+03    0.13048E-02   -0.62966E-01  3936   0.135E+00    0.292E-01
RMM:   2    -0.380505207656E+03   -0.34998E-02   -0.26360E-02  3963   0.199E-01    0.437E-01
RMM:   3    -0.380507519228E+03   -0.23116E-02   -0.36459E-03  3980   0.717E-02    0.750E-01
RMM:   4    -0.380503076394E+03    0.44428E-02   -0.79297E-04  3953   0.343E-02    0.212E-01
RMM:   5    -0.380503141770E+03   -0.65376E-04   -0.43510E-04  3943   0.262E-02    0.211E-01
RMM:   6    -0.380503090889E+03    0.50881E-04   -0.29075E-04  3942   0.216E-02    0.199E-01
RMM:   7    -0.380502950098E+03    0.14079E-03   -0.18606E-04  3943   0.176E-02    0.122E-01
RMM:   8    -0.380502905382E+03    0.44716E-04   -0.10140E-04  3940   0.129E-02    0.687E-02
RMM:   9    -0.380502876038E+03    0.29344E-04   -0.36892E-05  3933   0.805E-03    0.351E-02
RMM:  10    -0.380502868943E+03    0.70958E-05   -0.85309E-06  3876   0.382E-03    0.161E-02
RMM:  11    -0.380502867675E+03    0.12674E-05   -0.15655E-06  2127   0.172E-03    0.769E-03
RMM:  12    -0.380502867745E+03   -0.69944E-07   -0.11025E-06  2090   0.149E-03
  32 F= -.41557930E+03 E0= -.41524087E+03  d E =0.187344E-03
       N       E                     dE             d eps       ncg     rms          rms(c)
DAV:   1    -0.380502901078E+03   -0.33403E-04   -0.63294E-04  4000   0.373E-02    0.644E-03
RMM:   2    -0.380502906641E+03   -0.55631E-05   -0.14791E-05  3902   0.587E-03    0.276E-02
RMM:   3    -0.380502902204E+03    0.44372E-05   -0.19096E-06  2149   0.202E-03    0.452E-03
RMM:   4    -0.380502902378E+03   -0.17411E-06   -0.44932E-07  1995   0.102E-03
  33 F= -.41557930E+03 E0= -.41524086E+03  d E =-.373223E-06
       N       E                     dE             d eps       ncg     rms          rms(c)
DAV:   1    -0.380501930378E+03    0.97183E-03   -0.51957E-01  3936   0.125E+00    0.285E-01
RMM:   2    -0.380505460471E+03   -0.35301E-02   -0.21646E-02  3955   0.182E-01    0.491E-01
RMM:   3    -0.380510897628E+03   -0.54372E-02   -0.38581E-03  3970   0.714E-02    0.988E-01
RMM:   4    -0.380502831736E+03    0.80659E-02   -0.11792E-03  3947   0.416E-02    0.202E-01
RMM:   5    -0.380502849182E+03   -0.17446E-04   -0.39401E-04  3941   0.251E-02    0.181E-01
RMM:   6    -0.380502880743E+03   -0.31561E-04   -0.27224E-04  3941   0.209E-02    0.193E-01
RMM:   7    -0.380502739768E+03    0.14098E-03   -0.15293E-04  3946   0.161E-02    0.119E-01
RMM:   8    -0.380502692248E+03    0.47520E-04   -0.82091E-05  3939   0.115E-02    0.619E-02
RMM:   9    -0.380502669221E+03    0.23026E-04   -0.29344E-05  3931   0.719E-03    0.283E-02
RMM:  10    -0.380502664434E+03    0.47868E-05   -0.69271E-06  3742   0.349E-03    0.144E-02
RMM:  11    -0.380502663937E+03    0.49711E-06   -0.11357E-06  2117   0.145E-03
  34 F= -.41557958E+03 E0= -.41524123E+03  d E =-.271594E-03
       N       E                     dE             d eps       ncg     rms          rms(c)
DAV:   1    -0.380502769955E+03   -0.10552E-03   -0.30238E-03  3984   0.839E-02    0.248E-02
RMM:   2    -0.380502793583E+03   -0.23628E-04   -0.10829E-04  3952   0.144E-02    0.563E-02
RMM:   3    -0.380502778132E+03    0.15451E-04   -0.66701E-06  3369   0.368E-03    0.252E-02
RMM:   4    -0.380502785485E+03   -0.73534E-05   -0.71404E-06  3780   0.348E-03    0.405E-02
RMM:   5    -0.380502797438E+03   -0.11952E-04   -0.80296E-06  3750   0.332E-03    0.479E-02
RMM:   6    -0.380502782440E+03    0.14998E-04   -0.50181E-06  3123   0.245E-03    0.275E-02
RMM:   7    -0.380502777898E+03    0.45420E-05   -0.22832E-06  2267   0.206E-03    0.965E-03
RMM:   8    -0.380502777854E+03    0.44005E-07   -0.91825E-07  2046   0.140E-03
  35 F= -.41557957E+03 E0= -.41524123E+03  d E =0.170218E-05
       N       E                     dE             d eps       ncg     rms          rms(c)
DAV:   1    -0.380501679698E+03    0.10982E-02   -0.61904E-01  3936   0.135E+00    0.287E-01
RMM:   2    -0.380505194822E+03   -0.35151E-02   -0.26089E-02  3956   0.199E-01    0.452E-01
RMM:   3    -0.380507369116E+03   -0.21743E-02   -0.34124E-03  3977   0.700E-02    0.742E-01
RMM:   4    -0.380503023126E+03    0.43460E-02   -0.82207E-04  3955   0.344E-02    0.215E-01
RMM:   5    -0.380503094953E+03   -0.71827E-04   -0.44333E-04  3944   0.265E-02    0.228E-01
RMM:   6    -0.380503008493E+03    0.86460E-04   -0.28355E-04  3943   0.211E-02    0.190E-01
RMM:   7    -0.380502876003E+03    0.13249E-03   -0.22214E-04  3942   0.192E-02    0.117E-01
RMM:   8    -0.380502833111E+03    0.42892E-04   -0.10378E-04  3940   0.131E-02    0.667E-02
RMM:   9    -0.380502804714E+03    0.28397E-04   -0.38702E-05  3933   0.828E-03    0.352E-02
RMM:  10    -0.380502797259E+03    0.74547E-05   -0.83574E-06  3879   0.377E-03    0.154E-02
RMM:  11    -0.380502796160E+03    0.10989E-05   -0.15699E-06  2104   0.171E-03    0.799E-03
RMM:  12    -0.380502796223E+03   -0.62762E-07   -0.10646E-06  2073   0.148E-03
  36 F= -.41557957E+03 E0= -.41524115E+03  d E =0.522448E-05
       N       E                     dE             d eps       ncg     rms          rms(c)
DAV:   1    -0.380502057174E+03    0.73899E-03   -0.24426E-01  3920   0.733E-01    0.870E-02
RMM:   2    -0.380502597466E+03   -0.54029E-03   -0.46619E-03  3949   0.108E-01    0.133E-01
RMM:   3    -0.380502863343E+03   -0.26588E-03   -0.35699E-04  4004   0.248E-02    0.213E-01
RMM:   4    -0.380502592082E+03    0.27126E-03   -0.16910E-04  3963   0.153E-02    0.133E-01
RMM:   5    -0.380502496510E+03    0.95572E-04   -0.73561E-05  3945   0.110E-02    0.909E-02
RMM:   6    -0.380502466489E+03    0.30021E-04   -0.39896E-05  3940   0.809E-03    0.526E-02
RMM:   7    -0.380502461658E+03    0.48317E-05   -0.31581E-05  3928   0.727E-03    0.376E-02
RMM:   8    -0.380502457750E+03    0.39074E-05   -0.20043E-05  3924   0.585E-03    0.282E-02
RMM:   9    -0.380502453171E+03    0.45792E-05   -0.42107E-06  2881   0.277E-03    0.113E-02
RMM:  10    -0.380502452510E+03    0.66161E-06   -0.11788E-06  2049   0.158E-03
  37 F= -.41557973E+03 E0= -.41524134E+03  d E =-.158475E-03
       N       E                     dE             d eps       ncg     rms          rms(c)
DAV:   1    -0.380501602646E+03    0.85053E-03   -0.51991E-01  3936   0.125E+00    0.288E-01
RMM:   2    -0.380504799392E+03   -0.31967E-02   -0.21768E-02  3954   0.182E-01    0.459E-01
RMM:   3    -0.380506543004E+03   -0.17436E-02   -0.33779E-03  3969   0.688E-02    0.719E-01
RMM:   4    -0.380502528766E+03    0.40142E-02   -0.72220E-04  3958   0.328E-02    0.211E-01
RMM:   5    -0.380502572314E+03   -0.43547E-04   -0.39868E-04  3941   0.250E-02    0.199E-01
RMM:   6    -0.380502576777E+03   -0.44629E-05   -0.28534E-04  3943   0.213E-02    0.207E-01
RMM:   7    -0.380502410906E+03    0.16587E-03   -0.16989E-04  3944   0.169E-02    0.121E-01
RMM:   8    -0.380502361097E+03    0.49808E-04   -0.86149E-05  3942   0.118E-02    0.631E-02
RMM:   9    -0.380502337865E+03    0.23233E-04   -0.30462E-05  3932   0.732E-03    0.314E-02
RMM:  10    -0.380502332428E+03    0.54366E-05   -0.72288E-06  3789   0.355E-03    0.163E-02
RMM:  11    -0.380502331639E+03    0.78951E-06   -0.12972E-06  2128   0.155E-03
  38 F= -.41558006E+03 E0= -.41524176E+03  d E =-.333918E-03
       N       E                     dE             d eps       ncg     rms          rms(c)
DAV:   1    -0.380502276851E+03    0.55577E-04   -0.36848E-03  3984   0.927E-02    0.184E-02
RMM:   2    -0.380502316062E+03   -0.39210E-04   -0.10029E-04  3952   0.146E-02    0.673E-02
RMM:   3    -0.380502295071E+03    0.20991E-04   -0.12593E-05  3925   0.439E-03    0.381E-02
RMM:   4    -0.380502289119E+03    0.59517E-05   -0.60815E-06  3384   0.300E-03    0.283E-02
RMM:   5    -0.380502285209E+03    0.39103E-05   -0.25127E-06  2260   0.223E-03    0.160E-02
RMM:   6    -0.380502284847E+03    0.36169E-06   -0.20317E-06  2208   0.209E-03
  39 F= -.41558005E+03 E0= -.41524175E+03  d E =0.108631E-04
       N       E                     dE             d eps       ncg     rms          rms(c)
DAV:   1    -0.380501142665E+03    0.11425E-02   -0.63159E-01  3936   0.136E+00    0.280E-01
RMM:   2    -0.380505061318E+03   -0.39187E-02   -0.26705E-02  3958   0.200E-01    0.480E-01
RMM:   3    -0.380509922059E+03   -0.48607E-02   -0.37742E-03  3976   0.716E-02    0.942E-01
RMM:   4    -0.380502519850E+03    0.74022E-02   -0.12066E-03  3948   0.417E-02    0.198E-01
RMM:   5    -0.380502513165E+03    0.66854E-05   -0.40310E-04  3945   0.255E-02    0.186E-01
RMM:   6    -0.380502527842E+03   -0.14677E-04   -0.25666E-04  3941   0.202E-02    0.189E-01
RMM:   7    -0.380502396636E+03    0.13121E-03   -0.18455E-04  3942   0.176E-02    0.110E-01
RMM:   8    -0.380502362305E+03    0.34331E-04   -0.96794E-05  3939   0.127E-02    0.630E-02
RMM:   9    -0.380502334962E+03    0.27343E-04   -0.36111E-05  3933   0.805E-03    0.296E-02
RMM:  10    -0.380502329682E+03    0.52803E-05   -0.68957E-06  3764   0.346E-03    0.146E-02
RMM:  11    -0.380502328893E+03    0.78856E-06   -0.13011E-06  2107   0.156E-03
  40 F= -.41557994E+03 E0= -.41524158E+03  d E =0.108507E-03
