       N       E                     dE             d eps       ncg     rms          rms(c)
DAV:   1     0.353735277043E+03    0.35374E+03   -0.31349E+04288224   0.126E+03
DAV:   2    -0.313110662041E+02   -0.38505E+03   -0.36010E+03331408   0.278E+02
DAV:   3    -0.388353300107E+02   -0.75243E+01   -0.74575E+01350080   0.394E+01
DAV:   4    -0.388806862633E+02   -0.45356E-01   -0.45352E-01350912   0.327E+00
DAV:   5    -0.388812222103E+02   -0.53595E-03   -0.53594E-03359120   0.384E-01    0.285E+01
RMM:   6    -0.368155720221E+02    0.20657E+01   -0.32821E+00288192   0.818E+00    0.151E+01
RMM:   7    -0.366160913891E+02    0.19948E+00   -0.74055E-01288192   0.386E+00    0.462E+00
RMM:   8    -0.365897961319E+02    0.26295E-01   -0.75221E-02288192   0.121E+00    0.150E+00
RMM:   9    -0.365883433411E+02    0.14528E-02   -0.99603E-04288192   0.140E-01    0.101E-01
RMM:  10    -0.365883512717E+02   -0.79306E-05   -0.25241E-05288191   0.194E-02    0.219E-02
RMM:  11    -0.365883522383E+02   -0.96658E-06   -0.17284E-06197549   0.734E-03
   1 F= -.36588352E+02 E0= -.36587466E+02  d E =-.365884E+02
