       N       E                     dE             d eps       ncg     rms          rms(c)
DAV:   1     0.428058062075E+04    0.42806E+04   -0.26588E+05  3920   0.127E+03
DAV:   2    -0.549647381362E+02   -0.43355E+04   -0.40010E+04  4640   0.277E+02
DAV:   3    -0.391286390331E+03   -0.33632E+03   -0.30336E+03  4648   0.706E+01
DAV:   4    -0.408754384714E+03   -0.17468E+02   -0.16312E+02  5120   0.144E+01
DAV:   5    -0.409217286474E+03   -0.46290E+00   -0.45835E+00  4888   0.244E+00    0.824E+01
RMM:   6    -0.398483684224E+03    0.10734E+02   -0.84504E+01  3936   0.142E+01    0.647E+01
RMM:   7    -0.670649788872E+03   -0.27217E+03   -0.38735E+02  4410   0.177E+01    0.110E+02
RMM:   8    -0.501739143857E+03    0.16891E+03   -0.12936E+02  3920   0.117E+01    0.868E+01
RMM:   9    -0.430867240327E+03    0.70872E+02   -0.56726E+01  3934   0.920E+00    0.509E+01
RMM:  10    -0.412167021408E+03    0.18700E+02   -0.71052E+01  3926   0.997E+00    0.527E+01
RMM:  11    -0.390448207921E+03    0.21719E+02   -0.14992E+01  3934   0.460E+00    0.301E+01
RMM:  12    -0.384889936003E+03    0.55583E+01   -0.65514E+00  3935   0.314E+00    0.183E+01
RMM:  13    -0.383450554702E+03    0.14394E+01   -0.25428E+00  3939   0.195E+00    0.139E+01
RMM:  14    -0.382045697551E+03    0.14049E+01   -0.75824E-01  3939   0.108E+00    0.780E+00
RMM:  15    -0.381853832035E+03    0.19187E+00   -0.41189E-01  3947   0.763E-01    0.709E+00
RMM:  16    -0.381715239118E+03    0.13859E+00   -0.21788E-01  3945   0.552E-01    0.556E+00
RMM:  17    -0.381743740816E+03   -0.28502E-01   -0.17710E-01  3941   0.507E-01    0.523E+00
RMM:  18    -0.381709808012E+03    0.33933E-01   -0.16628E-01  3937   0.514E-01    0.430E+00
RMM:  19    -0.381619074285E+03    0.90734E-01   -0.12922E-01  3939   0.459E-01    0.271E+00
RMM:  20    -0.381573209590E+03    0.45865E-01   -0.65358E-02  3940   0.311E-01    0.198E+00
RMM:  21    -0.381561998772E+03    0.11211E-01   -0.17231E-02  3943   0.159E-01    0.145E+00
RMM:  22    -0.381555119330E+03    0.68794E-02   -0.75749E-03  3940   0.110E-01    0.102E+00
RMM:  23    -0.381552910651E+03    0.22087E-02   -0.41243E-03  3939   0.828E-02    0.816E-01
RMM:  24    -0.381551230565E+03    0.16801E-02   -0.33087E-03  3940   0.731E-02    0.710E-01
RMM:  25    -0.381548078342E+03    0.31522E-02   -0.26962E-03  3938   0.645E-02    0.471E-01
RMM:  26    -0.381545923661E+03    0.21547E-02   -0.15471E-03  3937   0.467E-02    0.225E-01
RMM:  27    -0.381545722367E+03    0.20129E-03   -0.56479E-04  3949   0.265E-02    0.175E-01
RMM:  28    -0.381545619984E+03    0.10238E-03   -0.20859E-04  3962   0.170E-02    0.123E-01
RMM:  29    -0.381545668914E+03   -0.48930E-04   -0.30222E-04  3936   0.192E-02    0.107E-01
RMM:  30    -0.381545662458E+03    0.64555E-05   -0.81251E-05  3944   0.109E-02    0.555E-02
RMM:  31    -0.381545704981E+03   -0.42523E-04   -0.21419E-05  4022   0.537E-03    0.480E-02
RMM:  32    -0.381545842187E+03   -0.13721E-03   -0.25441E-05  3920   0.534E-03    0.306E-02
RMM:  33    -0.381545934427E+03   -0.92240E-04   -0.15256E-05  3908   0.419E-03    0.194E-02
RMM:  34    -0.381546034502E+03   -0.10008E-03   -0.84383E-06  3283   0.319E-03    0.244E-02
RMM:  35    -0.381546091897E+03   -0.57395E-04   -0.42464E-06  2721   0.207E-03    0.140E-02
RMM:  36    -0.381546197145E+03   -0.10525E-03   -0.78204E-06  3016   0.246E-03    0.153E-02
RMM:  37    -0.381546266681E+03   -0.69536E-04   -0.44960E-06  2705   0.194E-03    0.817E-03
RMM:  38    -0.381546302139E+03   -0.35458E-04   -0.15425E-06  2347   0.119E-03    0.707E-03
RMM:  39    -0.381546350972E+03   -0.48833E-04   -0.29886E-06  2565   0.140E-03    0.376E-03
RMM:  40    -0.381546367782E+03   -0.16809E-04   -0.85587E-07  2181   0.813E-04    0.358E-03
RMM:  41    -0.381546381355E+03   -0.13573E-04   -0.50092E-07  1630   0.620E-04    0.328E-03
RMM:  42    -0.381546387689E+03   -0.63335E-05   -0.20971E-07  1210   0.470E-04    0.194E-03
RMM:  43    -0.381546403173E+03   -0.15484E-04   -0.34371E-07  1881   0.575E-04    0.313E-03
RMM:  44    -0.381546409426E+03   -0.62534E-05   -0.12627E-07   920   0.370E-04    0.268E-03
RMM:  45    -0.381546419961E+03   -0.10535E-04   -0.96705E-07  2149   0.915E-04    0.211E-02
RMM:  46    -0.381546428799E+03   -0.88378E-05   -0.95396E-07  2146   0.903E-04    0.359E-02
RMM:  47    -0.381546431038E+03   -0.22390E-05   -0.27181E-07  1375   0.503E-04    0.366E-02
RMM:  48    -0.381546433034E+03   -0.19965E-05   -0.13341E-07  1046   0.414E-04    0.388E-02
RMM:  49    -0.381546438208E+03   -0.51732E-05   -0.28490E-07  1857   0.538E-04    0.451E-02
RMM:  50    -0.381546437037E+03    0.11703E-05   -0.18914E-08   491   0.306E-04    0.437E-02
RMM:  51    -0.381546431590E+03    0.54469E-05   -0.10633E-08   411   0.346E-04    0.367E-02
RMM:  52    -0.381546428850E+03    0.27405E-05   -0.18692E-07  1620   0.491E-04    0.321E-02
RMM:  53    -0.381546423386E+03    0.54643E-05   -0.65988E-07  2057   0.822E-04    0.181E-02
RMM:  54    -0.381546422631E+03    0.75457E-06   -0.10859E-06  2161   0.986E-04
   1 F= -.41560608E+03 E0= -.41527336E+03  d E =-.415606E+03
       N       E                     dE             d eps       ncg     rms          rms(c)
DAV:   1    -0.381543990224E+03    0.24332E-02   -0.21835E+00  3992   0.193E+00    0.245E-01
RMM:   2    -0.381549629957E+03   -0.56397E-02   -0.29860E-02  3934   0.304E-01    0.620E-01
RMM:   3    -0.381548095589E+03    0.15344E-02   -0.25575E-03  3974   0.686E-02    0.429E-01
RMM:   4    -0.381546762174E+03    0.13334E-02   -0.78601E-04  3941   0.362E-02    0.199E-01
RMM:   5    -0.381546940568E+03   -0.17839E-03   -0.75203E-04  3941   0.345E-02    0.311E-01
RMM:   6    -0.381546532354E+03    0.40821E-03   -0.55692E-04  3942   0.294E-02    0.169E-01
RMM:   7    -0.381546490262E+03    0.42092E-04   -0.40802E-04  3934   0.256E-02    0.143E-01
RMM:   8    -0.381546423972E+03    0.66290E-04   -0.17455E-04  3934   0.171E-02    0.103E-01
RMM:   9    -0.381546377644E+03    0.46328E-04   -0.54249E-05  3935   0.953E-03    0.632E-02
RMM:  10    -0.381546350346E+03    0.27298E-04   -0.19205E-05  3920   0.565E-03    0.356E-02
RMM:  11    -0.381546341653E+03    0.86931E-05   -0.92236E-06  3888   0.377E-03    0.205E-02
RMM:  12    -0.381546338707E+03    0.29461E-05   -0.48283E-06  3036   0.280E-03    0.125E-02
RMM:  13    -0.381546338391E+03    0.31593E-06   -0.15824E-06  2128   0.181E-03
   2 F= -.41562616E+03 E0= -.41529350E+03  d E =-.200872E-01
       N       E                     dE             d eps       ncg     rms          rms(c)
DAV:   1    -0.381506221368E+03    0.40117E-01   -0.27543E+01  3936   0.695E+00    0.829E-01
RMM:   2    -0.381617480202E+03   -0.11126E+00   -0.39922E-01  3936   0.110E+00    0.303E+00
RMM:   3    -0.381550101845E+03    0.67378E-01   -0.34535E-02  3974   0.251E-01    0.108E+00
RMM:   4    -0.381543526757E+03    0.65751E-02   -0.10153E-02  3942   0.132E-01    0.831E-01
RMM:   5    -0.381541609137E+03    0.19176E-02   -0.63803E-03  3943   0.102E-01    0.854E-01
RMM:   6    -0.381538834362E+03    0.27748E-02   -0.55518E-03  3941   0.935E-02    0.547E-01
RMM:   7    -0.381538878405E+03   -0.44043E-04   -0.47750E-03  3941   0.870E-02    0.540E-01
RMM:   8    -0.381537669199E+03    0.12092E-02   -0.20392E-03  3943   0.584E-02    0.347E-01
RMM:   9    -0.381537117730E+03    0.55147E-03   -0.61374E-04  3939   0.320E-02    0.214E-01
RMM:  10    -0.381536796265E+03    0.32147E-03   -0.20952E-04  3934   0.189E-02    0.121E-01
RMM:  11    -0.381536698132E+03    0.98132E-04   -0.10031E-04  3936   0.119E-02    0.675E-02
RMM:  12    -0.381536663402E+03    0.34730E-04   -0.57320E-05  3928   0.952E-03    0.437E-02
RMM:  13    -0.381536658351E+03    0.50507E-05   -0.18234E-05  3925   0.540E-03    0.353E-02
RMM:  14    -0.381536654373E+03    0.39786E-05   -0.99120E-06  3890   0.392E-03    0.226E-02
RMM:  15    -0.381536652089E+03    0.22836E-05   -0.76713E-06  3866   0.357E-03    0.109E-02
RMM:  16    -0.381536652244E+03   -0.15431E-06   -0.95941E-07  2108   0.142E-03
   3 F= -.41568819E+03 E0= -.41535596E+03  d E =-.620316E-01
       N       E                     dE             d eps       ncg     rms          rms(c)
DAV:   1    -0.381458890246E+03    0.77762E-01   -0.43571E+01  3920   0.887E+00    0.105E+00
RMM:   2    -0.381652389137E+03   -0.19350E+00   -0.66748E-01  3943   0.140E+00    0.401E+00
RMM:   3    -0.381526805672E+03    0.12558E+00   -0.55497E-02  3992   0.320E-01    0.113E+00
RMM:   4    -0.381523985180E+03    0.28205E-02   -0.17601E-02  3945   0.173E-01    0.125E+00
RMM:   5    -0.381516413598E+03    0.75716E-02   -0.81365E-03  3945   0.117E-01    0.953E-01
RMM:   6    -0.381513705393E+03    0.27082E-02   -0.73815E-03  3942   0.109E-01    0.727E-01
RMM:   7    -0.381513905158E+03   -0.19977E-03   -0.74087E-03  3942   0.108E-01    0.719E-01
RMM:   8    -0.381511385751E+03    0.25194E-02   -0.30919E-03  3944   0.717E-02    0.422E-01
RMM:   9    -0.381510583360E+03    0.80239E-03   -0.88062E-04  3943   0.382E-02    0.263E-01
RMM:  10    -0.381510115791E+03    0.46757E-03   -0.30645E-04  3935   0.228E-02    0.152E-01
RMM:  11    -0.381509951362E+03    0.16443E-03   -0.15151E-04  3938   0.144E-02    0.759E-02
RMM:  12    -0.381509907217E+03    0.44145E-04   -0.84230E-05  3931   0.116E-02    0.528E-02
RMM:  13    -0.381509900135E+03    0.70815E-05   -0.26506E-05  3931   0.651E-03    0.430E-02
RMM:  14    -0.381509894461E+03    0.56744E-05   -0.15555E-05  3908   0.493E-03    0.291E-02
RMM:  15    -0.381509889531E+03    0.49293E-05   -0.95768E-06  3907   0.400E-03    0.164E-02
RMM:  16    -0.381509888528E+03    0.10036E-05   -0.14859E-06  2139   0.174E-03    0.734E-03
RMM:  17    -0.381509889110E+03   -0.58204E-06   -0.73274E-07  2091   0.125E-03
   4 F= -.41575138E+03 E0= -.41542020E+03  d E =-.631824E-01
       N       E                     dE             d eps       ncg     rms          rms(c)
DAV:   1    -0.381311559704E+03    0.19833E+00   -0.10160E+02  3920   0.137E+01    0.166E+00
RMM:   2    -0.381818980809E+03   -0.50742E+00   -0.16443E+00  3946   0.216E+00    0.657E+00
RMM:   3    -0.381471765479E+03    0.34722E+00   -0.13555E-01  3999   0.498E-01    0.155E+00
RMM:   4    -0.381476313922E+03   -0.45484E-02   -0.45185E-02  3945   0.275E-01    0.217E+00
RMM:   5    -0.381451764582E+03    0.24549E-01   -0.17693E-02  3946   0.173E-01    0.145E+00
RMM:   6    -0.381446371226E+03    0.53934E-02   -0.15750E-02  3943   0.160E-01    0.118E+00
RMM:   7    -0.381446540000E+03   -0.16877E-03   -0.17224E-02  3943   0.165E-01    0.114E+00
RMM:   8    -0.381439481298E+03    0.70587E-02   -0.69422E-03  3945   0.107E-01    0.611E-01
RMM:   9    -0.381437773912E+03    0.17074E-02   -0.19565E-03  3942   0.565E-02    0.383E-01
RMM:  10    -0.381436823653E+03    0.95026E-03   -0.66728E-04  3936   0.337E-02    0.224E-01
RMM:  11    -0.381436454426E+03    0.36923E-03   -0.33632E-04  3939   0.214E-02    0.109E-01
RMM:  12    -0.381436361207E+03    0.93219E-04   -0.17025E-04  3941   0.165E-02    0.718E-02
RMM:  13    -0.381436345293E+03    0.15914E-04   -0.58679E-05  3935   0.971E-03    0.566E-02
RMM:  14    -0.381436337057E+03    0.82365E-05   -0.37371E-05  3916   0.768E-03    0.388E-02
RMM:  15    -0.381436324858E+03    0.12199E-04   -0.18978E-05  3922   0.572E-03    0.140E-02
RMM:  16    -0.381436324306E+03    0.55198E-06   -0.24657E-06  2289   0.226E-03
   5 F= -.41581560E+03 E0= -.41548710E+03  d E =-.642274E-01
       N       E                     dE             d eps       ncg     rms          rms(c)
DAV:   1    -0.381329179695E+03    0.10715E+00   -0.35595E+01  3920   0.826E+00    0.102E+00
RMM:   2    -0.381504773998E+03   -0.17559E+00   -0.60575E-01  3947   0.129E+00    0.383E+00
RMM:   3    -0.381386541789E+03    0.11823E+00   -0.46754E-02  3992   0.294E-01    0.831E-01
RMM:   4    -0.381392221822E+03   -0.56800E-02   -0.16652E-02  3942   0.166E-01    0.143E+00
RMM:   5    -0.381381179464E+03    0.11042E-01   -0.59108E-03  3946   0.101E-01    0.865E-01
RMM:   6    -0.381379739833E+03    0.14396E-02   -0.53808E-03  3943   0.938E-02    0.742E-01
RMM:   7    -0.381379575588E+03    0.16424E-03   -0.59963E-03  3943   0.980E-02    0.696E-01
RMM:   8    -0.381376921536E+03    0.26541E-02   -0.23455E-03  3945   0.619E-02    0.363E-01
RMM:   9    -0.381376297794E+03    0.62374E-03   -0.66441E-04  3940   0.328E-02    0.222E-01
RMM:  10    -0.381375979961E+03    0.31783E-03   -0.22510E-04  3938   0.195E-02    0.129E-01
RMM:  11    -0.381375857582E+03    0.12238E-03   -0.11464E-04  3937   0.125E-02    0.652E-02
RMM:  12    -0.381375834007E+03    0.23576E-04   -0.59991E-05  3937   0.972E-03    0.522E-02
RMM:  13    -0.381375826797E+03    0.72093E-05   -0.22746E-05  3921   0.606E-03    0.401E-02
RMM:  14    -0.381375823939E+03    0.28582E-05   -0.12674E-05  3912   0.450E-03    0.308E-02
RMM:  15    -0.381375819111E+03    0.48282E-05   -0.61833E-06  3573   0.326E-03    0.166E-02
RMM:  16    -0.381375817414E+03    0.16969E-05   -0.18518E-06  2143   0.193E-03    0.519E-03
RMM:  17    -0.381375817714E+03   -0.29935E-06   -0.63573E-07  2080   0.117E-03
   6 F= -.41583622E+03 E0= -.41550985E+03  d E =-.206142E-01
       N       E                     dE             d eps       ncg     rms          rms(c)
DAV:   1    -0.381317103439E+03    0.58714E-01   -0.12476E+01  3920   0.498E+00    0.637E-01
RMM:   2    -0.381376632325E+03   -0.59529E-01   -0.22431E-01  3949   0.771E-01    0.219E+00
RMM:   3    -0.381338218196E+03    0.38414E-01   -0.16493E-02  3989   0.174E-01    0.494E-01
RMM:   4    -0.381340635246E+03   -0.24170E-02   -0.60810E-03  3941   0.100E-01    0.884E-01
RMM:   5    -0.381336443182E+03    0.41921E-02   -0.20086E-03  3947   0.590E-02    0.518E-01
RMM:   6    -0.381336059975E+03    0.38321E-03   -0.19395E-03  3942   0.564E-02    0.459E-01
RMM:   7    -0.381335881380E+03    0.17859E-03   -0.20448E-03  3942   0.574E-02    0.416E-01
RMM:   8    -0.381334957363E+03    0.92402E-03   -0.79121E-04  3939   0.359E-02    0.215E-01
RMM:   9    -0.381334732211E+03    0.22515E-03   -0.24016E-04  3937   0.196E-02    0.126E-01
RMM:  10    -0.381334630882E+03    0.10133E-03   -0.75596E-05  3933   0.113E-02    0.740E-02
RMM:  11    -0.381334590353E+03    0.40529E-04   -0.39115E-05  3927   0.734E-03    0.362E-02
RMM:  12    -0.381334582904E+03    0.74490E-05   -0.22615E-05  3925   0.601E-03    0.284E-02
RMM:  13    -0.381334581929E+03    0.97552E-06   -0.80617E-06  3863   0.361E-03
   7 F= -.41584234E+03 E0= -.41551742E+03  d E =-.612100E-02
       N       E                     dE             d eps       ncg     rms          rms(c)
DAV:   1    -0.381315892326E+03    0.18691E-01   -0.18740E+00  3968   0.201E+00    0.272E-01
RMM:   2    -0.381325364194E+03   -0.94719E-02   -0.38512E-02  3952   0.305E-01    0.858E-01
RMM:   3    -0.381319423326E+03    0.59409E-02   -0.26433E-03  3988   0.690E-02    0.203E-01
RMM:   4    -0.381319853000E+03   -0.42967E-03   -0.10022E-03  3940   0.405E-02    0.353E-01
RMM:   5    -0.381319214349E+03    0.63865E-03   -0.33592E-04  3947   0.242E-02    0.212E-01
RMM:   6    -0.381319181080E+03    0.33268E-04   -0.31803E-04  3941   0.228E-02    0.192E-01
RMM:   7    -0.381319080059E+03    0.10102E-03   -0.28988E-04  3941   0.218E-02    0.147E-01
RMM:   8    -0.381318985859E+03    0.94201E-04   -0.10851E-04  3937   0.133E-02    0.905E-02
RMM:   9    -0.381318944519E+03    0.41340E-04   -0.37609E-05  3923   0.783E-03    0.448E-02
RMM:  10    -0.381318932329E+03    0.12189E-04   -0.10696E-05  3898   0.421E-03    0.257E-02
RMM:  11    -0.381318928014E+03    0.43154E-05   -0.49975E-06  3154   0.273E-03    0.146E-02
RMM:  12    -0.381318927012E+03    0.10019E-05   -0.33541E-06  2444   0.253E-03    0.114E-02
RMM:  13    -0.381318927045E+03   -0.32407E-07   -0.13677E-06  2110   0.173E-03
   8 F= -.41584385E+03 E0= -.41551953E+03  d E =-.151434E-02
       N       E                     dE             d eps       ncg     rms          rms(c)
DAV:   1    -0.381305772927E+03    0.13154E-01   -0.11338E+00  3968   0.162E+00    0.222E-01
RMM:   2    -0.381310672754E+03   -0.48998E-02   -0.25490E-02  3953   0.239E-01    0.572E-01
RMM:   3    -0.381308394162E+03    0.22786E-02   -0.16936E-03  3986   0.542E-02    0.241E-01
RMM:   4    -0.381308415657E+03   -0.21495E-04   -0.72092E-04  3937   0.338E-02    0.288E-01
RMM:   5    -0.381308004289E+03    0.41137E-03   -0.24225E-04  3946   0.204E-02    0.180E-01
RMM:   6    -0.381307930046E+03    0.74243E-04   -0.17920E-04  3939   0.171E-02    0.141E-01
RMM:   7    -0.381307884770E+03    0.45276E-04   -0.16906E-04  3938   0.166E-02    0.114E-01
RMM:   8    -0.381307837238E+03    0.47532E-04   -0.71350E-05  3938   0.107E-02    0.754E-02
RMM:   9    -0.381307809151E+03    0.28087E-04   -0.25880E-05  3922   0.654E-03    0.340E-02
RMM:  10    -0.381307802019E+03    0.71324E-05   -0.68189E-06  3680   0.337E-03    0.176E-02
RMM:  11    -0.381307799731E+03    0.22876E-05   -0.26631E-06  2308   0.215E-03    0.963E-03
RMM:  12    -0.381307799331E+03    0.40086E-06   -0.20057E-06  2137   0.205E-03
   9 F= -.41584483E+03 E0= -.41552095E+03  d E =-.980372E-03
       N       E                     dE             d eps       ncg     rms          rms(c)
DAV:   1    -0.381304467284E+03    0.33324E-02   -0.20842E-01  3968   0.716E-01    0.966E-02
RMM:   2    -0.381305202324E+03   -0.73504E-03   -0.51708E-03  3952   0.103E-01    0.188E-01
RMM:   3    -0.381305258166E+03   -0.55842E-04   -0.38140E-04  3986   0.247E-02    0.202E-01
RMM:   4    -0.381305014409E+03    0.24376E-03   -0.20155E-04  3938   0.172E-02    0.133E-01
RMM:   5    -0.381304915274E+03    0.99135E-04   -0.61349E-05  3938   0.102E-02    0.750E-02
RMM:   6    -0.381304899828E+03    0.15446E-04   -0.30514E-05  3925   0.705E-03    0.575E-02
RMM:   7    -0.381304889648E+03    0.10181E-04   -0.22687E-05  3925   0.617E-03    0.383E-02
RMM:   8    -0.381304889428E+03    0.21920E-06   -0.15310E-05  3915   0.498E-03    0.351E-02
RMM:   9    -0.381304883590E+03    0.58384E-05   -0.61157E-06  3675   0.322E-03    0.144E-02
RMM:  10    -0.381304882270E+03    0.13195E-05   -0.15712E-06  2108   0.176E-03    0.552E-03
RMM:  11    -0.381304882201E+03    0.69391E-07   -0.46242E-07  2043   0.957E-04
  10 F= -.41584538E+03 E0= -.41552163E+03  d E =-.547175E-03
       N       E                     dE             d eps       ncg     rms          rms(c)
DAV:   1    -0.381305645993E+03   -0.76372E-03   -0.28353E-01  3968   0.817E-01    0.971E-02
RMM:   2    -0.381306341879E+03   -0.69589E-03   -0.64314E-03  3953   0.118E-01    0.131E-01
RMM:   3    -0.381307035100E+03   -0.69322E-03   -0.54227E-04  3981   0.294E-02    0.317E-01
RMM:   4    -0.381306281678E+03    0.75342E-03   -0.20997E-04  3947   0.172E-02    0.125E-01
RMM:   5    -0.381306199189E+03    0.82489E-04   -0.86698E-05  3943   0.118E-02    0.778E-02
RMM:   6    -0.381306175974E+03    0.23215E-04   -0.32238E-05  3932   0.719E-03    0.485E-02
RMM:   7    -0.381306169973E+03    0.60010E-05   -0.24721E-05  3931   0.644E-03    0.375E-02
RMM:   8    -0.381306169806E+03    0.16642E-06   -0.20774E-05  3918   0.589E-03    0.332E-02
RMM:   9    -0.381306163512E+03    0.62940E-05   -0.86132E-06  3891   0.383E-03    0.152E-02
RMM:  10    -0.381306161925E+03    0.15878E-05   -0.18546E-06  2130   0.192E-03    0.673E-03
RMM:  11    -0.381306161834E+03    0.91015E-07   -0.53838E-07  2040   0.104E-03
  11 F= -.41584620E+03 E0= -.41552242E+03  d E =-.816456E-03
       N       E                     dE             d eps       ncg     rms          rms(c)
DAV:   1    -0.381308860335E+03   -0.26984E-02   -0.56311E-01  3936   0.113E+00    0.127E-01
RMM:   2    -0.381310420866E+03   -0.15605E-02   -0.11864E-02  3953   0.166E-01    0.248E-01
RMM:   3    -0.381310981898E+03   -0.56103E-03   -0.97261E-04  4001   0.394E-02    0.360E-01
RMM:   4    -0.381309982446E+03    0.99945E-03   -0.32791E-04  3938   0.226E-02    0.150E-01
RMM:   5    -0.381309865074E+03    0.11737E-03   -0.12281E-04  3945   0.143E-02    0.871E-02
RMM:   6    -0.381309844689E+03    0.20384E-04   -0.57928E-05  3935   0.971E-03    0.643E-02
RMM:   7    -0.381309838474E+03    0.62150E-05   -0.52811E-05  3932   0.938E-03    0.570E-02
RMM:   8    -0.381309832916E+03    0.55581E-05   -0.40671E-05  3941   0.826E-03    0.454E-02
RMM:   9    -0.381309819774E+03    0.13142E-04   -0.13967E-05  3917   0.488E-03    0.203E-02
RMM:  10    -0.381309817089E+03    0.26852E-05   -0.27215E-06  2295   0.231E-03    0.108E-02
RMM:  11    -0.381309816596E+03    0.49330E-06   -0.10048E-06  2049   0.141E-03
  12 F= -.41584712E+03 E0= -.41552322E+03  d E =-.919758E-03
       N       E                     dE             d eps       ncg     rms          rms(c)
DAV:   1    -0.381311899613E+03   -0.20825E-02   -0.18154E-01  3968   0.638E-01    0.717E-02
RMM:   2    -0.381312456422E+03   -0.55681E-03   -0.38118E-03  3950   0.944E-02    0.162E-01
RMM:   3    -0.381312505051E+03   -0.48629E-04   -0.30601E-04  3996   0.223E-02    0.181E-01
RMM:   4    -0.381312265797E+03    0.23925E-03   -0.97492E-05  3939   0.125E-02    0.913E-02
RMM:   5    -0.381312218372E+03    0.47425E-04   -0.35769E-05  3938   0.779E-03    0.416E-02
RMM:   6    -0.381312216597E+03    0.17745E-05   -0.19172E-05  3924   0.560E-03    0.399E-02
RMM:   7    -0.381312213919E+03    0.26787E-05   -0.17352E-05  3928   0.540E-03    0.335E-02
RMM:   8    -0.381312210191E+03    0.37277E-05   -0.13548E-05  3911   0.477E-03    0.231E-02
RMM:   9    -0.381312206343E+03    0.38479E-05   -0.35752E-06  2565   0.258E-03    0.105E-02
RMM:  10    -0.381312205832E+03    0.51113E-06   -0.81549E-07  2024   0.137E-03
  13 F= -.41584755E+03 E0= -.41552356E+03  d E =-.427969E-03
       N       E                     dE             d eps       ncg     rms          rms(c)
DAV:   1    -0.381314907314E+03   -0.27010E-02   -0.35322E-01  3936   0.881E-01    0.955E-02
RMM:   2    -0.381315904661E+03   -0.99735E-03   -0.71344E-03  3947   0.131E-01    0.210E-01
RMM:   3    -0.381316018787E+03   -0.11413E-03   -0.56164E-04  4000   0.305E-02    0.242E-01
RMM:   4    -0.381315608600E+03    0.41019E-03   -0.18626E-04  3940   0.171E-02    0.132E-01
RMM:   5    -0.381315503970E+03    0.10463E-03   -0.66428E-05  3938   0.107E-02    0.536E-02
RMM:   6    -0.381315504850E+03   -0.87995E-06   -0.34816E-05  3927   0.752E-03    0.559E-02
RMM:   7    -0.381315497650E+03    0.72002E-05   -0.34534E-05  3933   0.762E-03    0.451E-02
RMM:   8    -0.381315493599E+03    0.40511E-05   -0.26282E-05  3920   0.658E-03    0.366E-02
RMM:   9    -0.381315484256E+03    0.93430E-05   -0.83331E-06  3893   0.375E-03    0.152E-02
RMM:  10    -0.381315483064E+03    0.11922E-05   -0.13513E-06  2089   0.166E-03    0.101E-02
RMM:  11    -0.381315482602E+03    0.46190E-06   -0.59268E-07  2031   0.109E-03
  14 F= -.41584805E+03 E0= -.41552392E+03  d E =-.506097E-03
       N       E                     dE             d eps       ncg     rms          rms(c)
DAV:   1    -0.381317292806E+03   -0.18097E-02   -0.15004E-01  3936   0.568E-01    0.603E-02
RMM:   2    -0.381317785822E+03   -0.49302E-03   -0.29513E-03  3947   0.850E-02    0.166E-01
RMM:   3    -0.381317667423E+03    0.11840E-03   -0.22825E-04  3999   0.196E-02    0.122E-01
RMM:   4    -0.381317572757E+03    0.94666E-04   -0.67731E-05  3942   0.106E-02    0.761E-02
RMM:   5    -0.381317538597E+03    0.34160E-04   -0.26365E-05  3933   0.673E-03    0.370E-02
RMM:   6    -0.381317539302E+03   -0.70436E-06   -0.14776E-05  3917   0.492E-03    0.392E-02
RMM:   7    -0.381317536379E+03    0.29223E-05   -0.14898E-05  3920   0.500E-03    0.332E-02
RMM:   8    -0.381317532553E+03    0.38263E-05   -0.11561E-05  3904   0.436E-03    0.228E-02
RMM:   9    -0.381317528891E+03    0.36619E-05   -0.31335E-06  2390   0.243E-03    0.951E-03
RMM:  10    -0.381317528553E+03    0.33845E-06   -0.69605E-07  2024   0.127E-03
  15 F= -.41584833E+03 E0= -.41552410E+03  d E =-.275878E-03
       N       E                     dE             d eps       ncg     rms          rms(c)
DAV:   1    -0.381319190681E+03   -0.16618E-02   -0.13134E-01  3936   0.527E-01    0.555E-02
RMM:   2    -0.381319567226E+03   -0.37654E-03   -0.25148E-03  3947   0.791E-02    0.137E-01
RMM:   3    -0.381319526248E+03    0.40978E-04   -0.19193E-04  4005   0.181E-02    0.119E-01
RMM:   4    -0.381319438724E+03    0.87524E-04   -0.62904E-05  3945   0.100E-02    0.777E-02
RMM:   5    -0.381319401560E+03    0.37164E-04   -0.22921E-05  3929   0.629E-03    0.347E-02
RMM:   6    -0.381319402359E+03   -0.79845E-06   -0.12692E-05  3911   0.453E-03    0.370E-02
RMM:   7    -0.381319399247E+03    0.31117E-05   -0.14047E-05  3916   0.487E-03    0.303E-02
RMM:   8    -0.381319396906E+03    0.23409E-05   -0.99992E-06  3895   0.403E-03    0.241E-02
RMM:   9    -0.381319393019E+03    0.38870E-05   -0.30609E-06  2393   0.239E-03    0.980E-03
RMM:  10    -0.381319392612E+03    0.40732E-06   -0.69460E-07  2023   0.128E-03
  16 F= -.41584854E+03 E0= -.41552422E+03  d E =-.214882E-03
       N       E                     dE             d eps       ncg     rms          rms(c)
DAV:   1    -0.381320866244E+03   -0.14732E-02   -0.98613E-02  3936   0.460E-01    0.486E-02
RMM:   2    -0.381321129014E+03   -0.26277E-03   -0.19066E-03  3946   0.686E-02    0.106E-01
RMM:   3    -0.381321146137E+03   -0.17123E-04   -0.14601E-04  4000   0.157E-02    0.116E-01
RMM:   4    -0.381321054830E+03    0.91307E-04   -0.46914E-05  3944   0.862E-03    0.674E-02
RMM:   5    -0.381321027353E+03    0.27478E-04   -0.17234E-05  3926   0.544E-03    0.290E-02
RMM:   6    -0.381321027716E+03   -0.36375E-06   -0.99347E-06  3896   0.401E-03
  17 F= -.41584871E+03 E0= -.41552431E+03  d E =-.165478E-03
