 vasp.5.4.4.18Apr17-6-g9f103f2a35 (build Nov 06 2023 00:46:14) complex          
  
 executed on             LinuxIFC date 2025.07.22  17:49:08
 running on   56 total cores
 distrk:  each k-point on   56 cores,    1 groups
 distr:  one band on NCORES_PER_BAND=   8 cores,    7 groups


--------------------------------------------------------------------------------------------------------


 INCAR:
 POTCAR:    PAW_PBE Pt 04Feb2005                  
 POTCAR:    PAW_PBE O 08Apr2002                   
 POTCAR:    PAW_PBE Pt 04Feb2005                  
   VRHFIN =Pt: s1d9                                                             
   LEXCH  = PE                                                                  
   EATOM  =   729.1176 eV,   53.5886 Ry                                         
                                                                                
   TITEL  = PAW_PBE Pt 04Feb2005                                                
   LULTRA =        F    use ultrasoft PP ?                                      
   IUNSCR =        1    unscreen: 0-lin 1-nonlin 2-no                           
   RPACOR =    2.330    partial core radius                                     
   POMASS =  195.080; ZVAL   =   10.000    mass and valenz                      
   RCORE  =    2.600    outmost cutoff radius                                   
   RWIGS  =    2.750; RWIGS  =    1.455    wigner-seitz radius (au A)           
   ENMAX  =  230.283; ENMIN  =  172.712 eV                                      
   ICORE  =        3    local potential                                         
   LCOR   =        T    correct aug charges                                     
   LPAW   =        T    paw PP                                                  
   EAUG   =  358.966                                                            
   DEXC   =    0.000                                                            
   RMAX   =    2.658    core radius for proj-oper                               
   RAUG   =    1.300    factor for augmentation sphere                          
   RDEP   =    2.761    radius for radial grids                                 
   RDEPT  =    2.203    core radius for aug-charge                              
                                                                                
   Atomic configuration                                                         
   16 entries                                                                   
     n  l   j            E        occ.                                          
     1  0  0.50    -78401.1885   2.0000                                         
     2  0  0.50    -13770.7750   2.0000                                         
     2  1  1.50    -11931.0468   6.0000                                         
     3  0  0.50     -3234.7234   2.0000                                         
     3  1  1.50     -2699.2216   6.0000                                         
     3  2  2.50     -2119.5714  10.0000                                         
     4  0  0.50      -695.1528   2.0000                                         
     4  1  1.50      -519.6034   6.0000                                         
     4  2  2.50      -306.6786  10.0000                                         
     4  3  3.50       -70.1041  14.0000                                         
     5  0  0.50      -101.7747   2.0000                                         
     5  1  1.50       -55.9873   6.0000                                         
     5  2  2.50        -6.1423   9.0000                                         
     6  0  0.50        -5.6573   1.0000                                         
     6  1  1.50        -6.8029   0.0000                                         
     5  3  2.50        -1.3606   0.0000                                         
   Description                                                                  
     l       E           TYP  RCUT    TYP  RCUT                                 
     2     -6.1423404     23  2.500                                             
     2     -7.5029230     23  2.500                                             
     0     -5.6573207     23  2.500                                             
     0      0.7416693     23  2.500                                             
     1     -2.7211652     23  2.600                                             
     1     20.4087390     23  2.600                                             
     3     -1.3605826     23  2.500                                             
  local pseudopotential read in
  partial core-charges read in
  partial kinetic energy density read in
  atomic valenz-charges read in
  non local Contribution for L=           2  read in
    real space projection operators read in
  non local Contribution for L=           2  read in
    real space projection operators read in
  non local Contribution for L=           0  read in
    real space projection operators read in
  non local Contribution for L=           0  read in
    real space projection operators read in
  non local Contribution for L=           1  read in
    real space projection operators read in
  non local Contribution for L=           1  read in
    real space projection operators read in
    PAW grid and wavefunctions read in
 
   number of l-projection  operators is LMAX  =           6
   number of lm-projection operators is LMMAX =          18
 
 POTCAR:    PAW_PBE O 08Apr2002                   
   VRHFIN =O: s2p4                                                              
   LEXCH  = PE                                                                  
   EATOM  =   432.3788 eV,   31.7789 Ry                                         
                                                                                
   TITEL  = PAW_PBE O 08Apr2002                                                 
   LULTRA =        F    use ultrasoft PP ?                                      
   IUNSCR =        1    unscreen: 0-lin 1-nonlin 2-no                           
   RPACOR =    1.200    partial core radius                                     
   POMASS =   16.000; ZVAL   =    6.000    mass and valenz                      
   RCORE  =    1.520    outmost cutoff radius                                   
   RWIGS  =    1.550; RWIGS  =    0.820    wigner-seitz radius (au A)           
   ENMAX  =  400.000; ENMIN  =  300.000 eV                                      
   ICORE  =        2    local potential                                         
   LCOR   =        T    correct aug charges                                     
   LPAW   =        T    paw PP                                                  
   EAUG   =  605.392                                                            
   DEXC   =    0.000                                                            
   RMAX   =    1.553    core radius for proj-oper                               
   RAUG   =    1.300    factor for augmentation sphere                          
   RDEP   =    1.550    radius for radial grids                                 
   RDEPT  =    1.329    core radius for aug-charge                              
                                                                                
   Atomic configuration                                                         
    4 entries                                                                   
     n  l   j            E        occ.                                          
     1  0  0.50      -514.6923   2.0000                                         
     2  0  0.50       -23.9615   2.0000                                         
     2  1  0.50        -9.0305   4.0000                                         
     3  2  1.50        -9.5241   0.0000                                         
   Description                                                                  
     l       E           TYP  RCUT    TYP  RCUT                                 
     0    -23.9615318     23  1.200                                             
     0     -9.5240782     23  1.200                                             
     1     -9.0304911     23  1.520                                             
     1      8.1634956     23  1.520                                             
     2     -9.5240782      7  1.500                                             
  local pseudopotential read in
  partial core-charges read in
  partial kinetic energy density read in
  kinetic energy density of atom read in
  atomic valenz-charges read in
  non local Contribution for L=           0  read in
    real space projection operators read in
  non local Contribution for L=           0  read in
    real space projection operators read in
  non local Contribution for L=           1  read in
    real space projection operators read in
  non local Contribution for L=           1  read in
    real space projection operators read in
    PAW grid and wavefunctions read in
 
   number of l-projection  operators is LMAX  =           4
   number of lm-projection operators is LMMAX =           8
 
 Optimization of the real space projectors (new method)

 maximal supplied QI-value         = 14.36
 optimisation between [QCUT,QGAM] = [ 10.77, 21.69] = [ 32.49,131.70] Ry 
 Optimized for a Real-space Cutoff    1.46 Angstroem

   l    n(q)    QCUT    max X(q) W(low)/X(q) W(high)/X(q)  e(spline) 
   2      9    10.771    66.195    0.13E-03    0.31E-03    0.27E-06
   2      9    10.771    64.643    0.13E-03    0.32E-03    0.28E-06
   0     10    10.771    95.520    0.41E-04    0.13E-03    0.15E-06
   0     10    10.771    63.403    0.40E-04    0.12E-03    0.14E-06
   1      9    10.771    19.961    0.42E-03    0.19E-03    0.28E-06
   1      9    10.771    13.289    0.35E-03    0.16E-03    0.23E-06
 Optimization of the real space projectors (new method)

 maximal supplied QI-value         = 24.76
 optimisation between [QCUT,QGAM] = [ 10.64, 21.54] = [ 31.73,129.89] Ry 
 Optimized for a Real-space Cutoff    1.23 Angstroem

   l    n(q)    QCUT    max X(q) W(low)/X(q) W(high)/X(q)  e(spline) 
   0      8    10.645    20.381    0.38E-03    0.60E-03    0.15E-06
   0      8    10.645    15.268    0.40E-03    0.65E-03    0.17E-06
   1      7    10.645     5.964    0.30E-03    0.63E-03    0.18E-06
   1      7    10.645     5.382    0.24E-03    0.53E-03    0.16E-06
  PAW_PBE Pt 04Feb2005                  :
 energy of atom  1       EATOM= -729.1176
 kinetic energy error for atom=    0.0051 (will be added to EATOM!!)
  PAW_PBE O 08Apr2002                   :
 energy of atom  2       EATOM= -432.3788
 kinetic energy error for atom=    0.0389 (will be added to EATOM!!)
 
 
 POSCAR: Pt  O                                   
  positions in cartesian coordinates
  No initial velocities read in
 exchange correlation table for  LEXCH =        8
   RHO(1)=    0.500       N(1)  =     2000
   RHO(2)=  100.500       N(2)  =     4000

 VTST: version 3.2, (02/03/18)

 CHAIN: initializing optimizer
 
 OPT: Using VASP QUASI-newton optimizer
 CHAIN: Read ICHAIN            0
 
 POSCAR: Pt  O                                   
  positions in cartesian coordinates
  No initial velocities read in
 


--------------------------------------------------------------------------------------------------------


 ion  position               nearest neighbor table
   1  0.000  0.000  0.000-  34 2.81  29 2.81   5 2.81   4 2.81  28 2.81  36 2.81  60 2.81  25 2.81
                             9 2.81
   2  0.333  0.000  0.092-   6 2.79  30 2.79   3 2.79  33 2.81   4 2.81  28 2.81   5 2.81  29 2.81
                            37 2.81  61 2.81  10 2.81  26 2.81
   3  0.167  0.000  0.182-   5 2.79  29 2.79   2 2.79   6 2.81  30 2.81  38 2.81  62 2.81  11 2.81
                            27 2.81   7 2.82   8 2.82  32 2.82
   4  0.250  0.125  0.000-   5 2.81   2 2.81  10 2.81   9 2.81   1 2.81  33 2.81  41 2.81  12 2.81
                            28 2.81
   5  0.083  0.125  0.092-   3 2.79  11 2.79  38 2.79   4 2.81   1 2.81   9 2.81   2 2.81  34 2.81
                            10 2.81  42 2.81  29 2.81  13 2.81
   6  0.417  0.125  0.182-   2 2.79  10 2.79  37 2.79  11 2.81  35 2.81   3 2.81  43 2.81  30 2.81
                            14 2.81   8 2.82  39 2.82  47 2.82
   7  0.000  0.000  0.275-   8 2.81  32 2.81  40 2.81  64 2.81  31 2.81  15 2.81   3 2.82  62 2.82
                            38 2.82
   8  0.250  0.125  0.275-   7 2.81  15 2.81  39 2.81  47 2.81  16 2.81  32 2.81   6 2.82  11 2.82
                             3 2.82
   9  0.000  0.250  0.000-  42 2.81  13 2.81   5 2.81   4 2.81  36 2.81  12 2.81  44 2.81  17 2.81
                             1 2.81
  10  0.333  0.250  0.092-   6 2.79  14 2.79  11 2.79  41 2.81   4 2.81  12 2.81   5 2.81  37 2.81
                            13 2.81  45 2.81  18 2.81   2 2.81
  11  0.167  0.250  0.182-   5 2.79  13 2.79  10 2.79   6 2.81  14 2.81  38 2.81  46 2.81   3 2.81
                            19 2.81  15 2.82  16 2.82   8 2.82
  12  0.250  0.375  0.000-  13 2.81  10 2.81  18 2.81  17 2.81   9 2.81  41 2.81  49 2.81   4 2.81
                            20 2.81
  13  0.083  0.375  0.092-  11 2.79  19 2.79  46 2.79  12 2.81   9 2.81  17 2.81  10 2.81  42 2.81
                            18 2.81  50 2.81  21 2.81   5 2.81
  14  0.417  0.375  0.182-  10 2.79  18 2.79  45 2.79  19 2.81  43 2.81  11 2.81  51 2.81  22 2.81
                             6 2.81  16 2.82  47 2.82  55 2.82
  15  0.000  0.250  0.275-   8 2.81  16 2.81  40 2.81  48 2.81   7 2.81  23 2.81  11 2.82  46 2.82
                            38 2.82
  16  0.250  0.375  0.275-  15 2.81  23 2.81  47 2.81  55 2.81   8 2.81  24 2.81  14 2.82  11 2.82
                            19 2.82
  17  0.000  0.500  0.000-  50 2.81  21 2.81  13 2.81  12 2.81  44 2.81  20 2.81  52 2.81  25 2.81
                             9 2.81
  18  0.333  0.500  0.092-  14 2.79  22 2.79  19 2.79  49 2.81  12 2.81  20 2.81  13 2.81  45 2.81
                            21 2.81  53 2.81  26 2.81  10 2.81
  19  0.167  0.500  0.182-  13 2.79  21 2.79  18 2.79  14 2.81  22 2.81  46 2.81  54 2.81  11 2.81
                            27 2.81  23 2.82  24 2.82  16 2.82
  20  0.250  0.625  0.000-  21 2.81  18 2.81  26 2.81  25 2.81  17 2.81  49 2.81  57 2.81  12 2.81
                            28 2.81
  21  0.083  0.625  0.092-  19 2.79  27 2.79  54 2.79  20 2.81  17 2.81  25 2.81  18 2.81  50 2.81
                            26 2.81  58 2.81  29 2.81  13 2.81
  22  0.417  0.625  0.182-  18 2.79  26 2.79  53 2.79  27 2.81  51 2.81  19 2.81  59 2.81  30 2.81
                            14 2.81  24 2.82  55 2.82  63 2.82
  23  0.000  0.500  0.275-  16 2.81  24 2.81  48 2.81  56 2.81  15 2.81  31 2.81  19 2.82  54 2.82
                            46 2.82
  24  0.250  0.625  0.275-  23 2.81  31 2.81  55 2.81  63 2.81  16 2.81  32 2.81  22 2.82  19 2.82
                            27 2.82
  25  0.000  0.750  0.000-  58 2.81  29 2.81  21 2.81  20 2.81  52 2.81  28 2.81  60 2.81  17 2.81
                             1 2.81
  26  0.333  0.750  0.092-  22 2.79  30 2.79  27 2.79  57 2.81  20 2.81  28 2.81  21 2.81  53 2.81
                            29 2.81  61 2.81   2 2.81  18 2.81
  27  0.167  0.750  0.182-  21 2.79  29 2.79  26 2.79  22 2.81  30 2.81  54 2.81  62 2.81  19 2.81
                             3 2.81  31 2.82  24 2.82  32 2.82
  28  0.250  0.875  0.000-  29 2.81  26 2.81   2 2.81   1 2.81  25 2.81  33 2.81  57 2.81  20 2.81
                             4 2.81
  29  0.083  0.875  0.092-   3 2.79  27 2.79  62 2.79  28 2.81  25 2.81   1 2.81  26 2.81  34 2.81
                            58 2.81   2 2.81  21 2.81   5 2.81
  30  0.417  0.875  0.182-   2 2.79  26 2.79  61 2.79  27 2.81  35 2.81  59 2.81   3 2.81  22 2.81
                             6 2.81  32 2.82  39 2.82  63 2.82
  31  0.000  0.750  0.275-  24 2.81  32 2.81  56 2.81  64 2.81   7 2.81  23 2.81  27 2.82  62 2.82
                            54 2.82
  32  0.250  0.875  0.275-   7 2.81  31 2.81  39 2.81  63 2.81  24 2.81   8 2.81  30 2.82   3 2.82
                            27 2.82
  33  0.500  0.000  0.000-   2 2.81  37 2.81  61 2.81  36 2.81   4 2.81  60 2.81  28 2.81  41 2.81
                            57 2.81
  34  0.833  0.000  0.092-  38 2.79  62 2.79  35 2.79   1 2.81  60 2.81  36 2.81   5 2.81  29 2.81
                            61 2.81  37 2.81  58 2.81  42 2.81
  35  0.667  0.000  0.182-  37 2.79  61 2.79  34 2.79  30 2.81  38 2.81   6 2.81  62 2.81  43 2.81
                            59 2.81  39 2.82  40 2.82  64 2.82
  36  0.750  0.125  0.000-  37 2.81  34 2.81  42 2.81   1 2.81   9 2.81  41 2.81  33 2.81  44 2.81
                            60 2.81
  37  0.583  0.125  0.092-  35 2.79  43 2.79   6 2.79  36 2.81  41 2.81  33 2.81   2 2.81  34 2.81
                            42 2.81  10 2.81  45 2.81  61 2.81
  38  0.917  0.125  0.182-  34 2.79  42 2.79   5 2.79   3 2.81  35 2.81  11 2.81  43 2.81  46 2.81
                            62 2.81  40 2.82  15 2.82   7 2.82
  39  0.500  0.000  0.275-   8 2.81  32 2.81  40 2.81  64 2.81  63 2.81  47 2.81  35 2.82   6 2.82
                            30 2.82
  40  0.750  0.125  0.275-   7 2.81  15 2.81  39 2.81  47 2.81  48 2.81  64 2.81  38 2.82  43 2.82
                            35 2.82
  41  0.500  0.250  0.000-  10 2.81  37 2.81  45 2.81  36 2.81   4 2.81  44 2.81  12 2.81  33 2.81
                            49 2.81
  42  0.833  0.250  0.092-  38 2.79  46 2.79  43 2.79   9 2.81  44 2.81  36 2.81   5 2.81  37 2.81
                            45 2.81  13 2.81  34 2.81  50 2.81
  43  0.667  0.250  0.182-  37 2.79  45 2.79  42 2.79  38 2.81  14 2.81   6 2.81  46 2.81  35 2.81
                            51 2.81  47 2.82  48 2.82  40 2.82
  44  0.750  0.375  0.000-  45 2.81  42 2.81  50 2.81   9 2.81  17 2.81  49 2.81  41 2.81  36 2.81
                            52 2.81
  45  0.583  0.375  0.092-  43 2.79  51 2.79  14 2.79  44 2.81  49 2.81  41 2.81  10 2.81  42 2.81
                            50 2.81  18 2.81  37 2.81  53 2.81
  46  0.917  0.375  0.182-  42 2.79  50 2.79  13 2.79  11 2.81  43 2.81  19 2.81  51 2.81  38 2.81
                            54 2.81  48 2.82  23 2.82  15 2.82
  47  0.500  0.250  0.275-  65 2.12  16 2.81  40 2.81  48 2.81   8 2.81  55 2.81  39 2.81  43 2.82
                            14 2.82   6 2.82
  48  0.750  0.375  0.275-  15 2.81  23 2.81  47 2.81  55 2.81  40 2.81  56 2.81  46 2.82  43 2.82
                            51 2.82
  49  0.500  0.500  0.000-  18 2.81  45 2.81  53 2.81  44 2.81  12 2.81  52 2.81  20 2.81  41 2.81
                            57 2.81
  50  0.833  0.500  0.092-  46 2.79  54 2.79  51 2.79  17 2.81  52 2.81  44 2.81  13 2.81  45 2.81
                            53 2.81  21 2.81  42 2.81  58 2.81
  51  0.667  0.500  0.182-  45 2.79  53 2.79  50 2.79  46 2.81  22 2.81  14 2.81  54 2.81  43 2.81
                            59 2.81  55 2.82  56 2.82  48 2.82
  52  0.750  0.625  0.000-  53 2.81  50 2.81  58 2.81  17 2.81  25 2.81  57 2.81  49 2.81  44 2.81
                            60 2.81
  53  0.583  0.625  0.092-  51 2.79  59 2.79  22 2.79  52 2.81  57 2.81  49 2.81  18 2.81  50 2.81
                            58 2.81  26 2.81  45 2.81  61 2.81
  54  0.917  0.625  0.182-  50 2.79  58 2.79  21 2.79  19 2.81  51 2.81  27 2.81  59 2.81  46 2.81
                            62 2.81  56 2.82  31 2.82  23 2.82
  55  0.500  0.500  0.275-  66 2.12  24 2.81  48 2.81  56 2.81  16 2.81  63 2.81  47 2.81  51 2.82
                            22 2.82  14 2.82
  56  0.750  0.625  0.275-  23 2.81  31 2.81  55 2.81  63 2.81  48 2.81  64 2.81  54 2.82  51 2.82
                            59 2.82
  57  0.500  0.750  0.000-  26 2.81  53 2.81  61 2.81  52 2.81  20 2.81  60 2.81  28 2.81  33 2.81
                            49 2.81
  58  0.833  0.750  0.092-  54 2.79  62 2.79  59 2.79  25 2.81  60 2.81  52 2.81  21 2.81  53 2.81
                            61 2.81  29 2.81  50 2.81  34 2.81
  59  0.667  0.750  0.182-  53 2.79  61 2.79  58 2.79  54 2.81  30 2.81  22 2.81  62 2.81  51 2.81
                            35 2.81  63 2.82  56 2.82  64 2.82
  60  0.750  0.875  0.000-  61 2.81  58 2.81  34 2.81   1 2.81  57 2.81  25 2.81  33 2.81  52 2.81
                            36 2.81
  61  0.583  0.875  0.092-  35 2.79  59 2.79  30 2.79  60 2.81  33 2.81  57 2.81  26 2.81  58 2.81
                            34 2.81   2 2.81  37 2.81  53 2.81
  62  0.917  0.875  0.182-  34 2.79  58 2.79  29 2.79  27 2.81  35 2.81   3 2.81  59 2.81  38 2.81
                            54 2.81  64 2.82  31 2.82   7 2.82
  63  0.500  0.750  0.275-  24 2.81  32 2.81  56 2.81  64 2.81  39 2.81  55 2.81  59 2.82  22 2.82
                            30 2.82
  64  0.750  0.875  0.275-   7 2.81  31 2.81  39 2.81  63 2.81  56 2.81  40 2.81  62 2.82  35 2.82
                            59 2.82
  65  0.500  0.312  0.355-  66 1.40  47 2.12
  66  0.500  0.437  0.355-  65 1.40  55 2.12
 

IMPORTANT INFORMATION: All symmetrisations will be switched off!
NOSYMM: (Re-)initialisation of all symmetry stuff for point group C_1.

 
 
 KPOINTS: K-Spacing Value to Generate K-Mesh: 0.03

Automatic generation of k-mesh.
Space group operators:
 irot       det(A)        alpha          n_x          n_y          n_z        tau_x        tau_y        tau_z
    1     1.000000     0.000000     1.000000     0.000000     0.000000     0.000000     0.000000     0.000000
 
 Subroutine IBZKPT returns following result:
 ===========================================
 
 Found      5 irreducible k-points:
 
 Following reciprocal coordinates:
            Coordinates               Weight
  0.000000  0.000000  0.000000      1.000000
  0.333333  0.000000  0.000000      2.000000
  0.000000  0.333333  0.000000      2.000000
  0.333333  0.333333  0.000000      2.000000
 -0.333333  0.333333  0.000000      2.000000
 
 Following cartesian coordinates:
            Coordinates               Weight
  0.000000  0.000000  0.000000      1.000000
  0.034301  0.000000  0.000000      2.000000
  0.000000  0.029706  0.000000      2.000000
  0.034301  0.029706  0.000000      2.000000
 -0.034301  0.029706  0.000000      2.000000
 


--------------------------------------------------------------------------------------------------------




 Dimension of arrays:
   k-points           NKPTS =      5   k-points in BZ     NKDIM =      5   number of bands    NBANDS=    392
   number of dos      NEDOS =    301   number of ions     NIONS =     66
   non local maximal  LDIM  =      6   non local SUM 2l+1 LMDIM =     18
   total plane-waves  NPLWV = 420000
   max r-space proj   IRMAX =   2078   max aug-charges    IRDMAX=   9530
   dimension x,y,z NGX =    50 NGY =   60 NGZ =  140
   dimension x,y,z NGXF=   100 NGYF=  120 NGZF=  280
   support grid    NGXF=   100 NGYF=  120 NGZF=  280
   ions per type =              64   2
   NGX,Y,Z   is equivalent  to a cutoff of   8.55,  8.89,  9.31 a.u.
   NGXF,Y,Z  is equivalent  to a cutoff of  17.11, 17.78, 18.62 a.u.

 SYSTEM =  Pt111 O2 adsorption system              
 POSCAR =  Pt  O                                   

 Startparameter for this run:
   NWRITE =      2    write-flag & timer
   PREC   = normal    normal or accurate (medium, high low for compatibility)
   ISTART =      0    job   : 0-new  1-cont  2-samecut
   ICHARG =      1    charge: 1-file 2-atom 10-const
   ISPIN  =      1    spin polarized calculation?
   LNONCOLLINEAR =      F non collinear calculations
   LSORBIT =      F    spin-orbit coupling
   INIWAV =      1    electr: 0-lowe 1-rand  2-diag
   LASPH  =      F    aspherical Exc in radial PAW
   METAGGA=      F    non-selfconsistent MetaGGA calc.

 Electronic Relaxation 1
   ENCUT  =  450.0 eV  33.07 Ry    5.75 a.u.  16.81 19.41 43.24*2*pi/ulx,y,z
   ENINI  =  450.0     initial cutoff
   ENAUG  =  605.4 eV  augmentation charge cutoff
   NELM   =     60;   NELMIN=  2; NELMDL= -5     # of ELM steps 
   EDIFF  = 0.1E-05   stopping-criterion for ELM
   LREAL  =      T    real-space projection
   NLSPLINE    = F    spline interpolate recip. space projectors
   LCOMPAT=      F    compatible to vasp.4.4
   GGA_COMPAT  = T    GGA compatible to vasp.4.4-vasp.4.6
   LMAXPAW     = -100 max onsite density
   LMAXMIX     =    2 max onsite mixed and CHGCAR
   VOSKOWN=      0    Vosko Wilk Nusair interpolation
   ROPT   =   -0.00050  -0.00050
 Ionic relaxation
   EDIFFG = -.2E-01   stopping-criterion for IOM
   NSW    =    200    number of steps for IOM
   NBLOCK =      1;   KBLOCK =    200    inner block; outer block 
   IBRION =      1    ionic relax: 0-MD 1-quasi-New 2-CG
   NFREE  =      0    steps in history (QN), initial steepest desc. (CG)
   ISIF   =      2    stress and relaxation
   IWAVPR =     11    prediction:  0-non 1-charg 2-wave 3-comb
   ISYM   =      0    0-nonsym 1-usesym 2-fastsym
   LCORR  =      T    Harris-Foulkes like correction to forces

   POTIM  = 0.2000    time-step for ionic-motion
   TEIN   =    0.0    initial temperature
   TEBEG  =    0.0;   TEEND  =   0.0 temperature during run
   SMASS  =  -3.00    Nose mass-parameter (am)
   estimated Nose-frequenzy (Omega)   =  0.10E-29 period in steps =****** mass=  -0.216E-26a.u.
   SCALEE = 1.0000    scale energy and forces
   NPACO  =    256;   APACO  = 16.0  distance and # of slots for P.C.
   PSTRESS=    0.0 pullay stress

  Mass of Ions in am
   POMASS = 195.08 16.00
  Ionic Valenz
   ZVAL   =  10.00  6.00
  Atomic Wigner-Seitz radii
   RWIGS  =  -1.00 -1.00
  virtual crystal weights 
   VCA    =   1.00  1.00
   NELECT =     652.0000    total number of electrons
   NUPDOWN=      -1.0000    fix difference up-down

 DOS related values:
   EMIN   =  10.00;   EMAX   =-10.00  energy-range for DOS
   EFERMI =   0.00
   ISMEAR =     0;   SIGMA  =   0.10  broadening in eV -4-tet -1-fermi 0-gaus

 Electronic relaxation 2 (details)
   IALGO  =     68    algorithm
   LDIAG  =      T    sub-space diagonalisation (order eigenvalues)
   LSUBROT=      F    optimize rotation matrix (better conditioning)
   TURBO    =      0    0=normal 1=particle mesh
   IRESTART =      0    0=no restart 2=restart with 2 vectors
   NREBOOT  =      0    no. of reboots
   NMIN     =      0    reboot dimension
   EREF     =   0.00    reference energy to select bands
   IMIX   =      4    mixing-type and parameters
     AMIX     =   0.40;   BMIX     =  1.00
     AMIX_MAG =   1.60;   BMIX_MAG =  1.00
     AMIN     =   0.10
     WC   =   100.;   INIMIX=   1;  MIXPRE=   1;  MAXMIX= -45

 Intra band minimization:
   WEIMIN = 0.0010     energy-eigenvalue tresh-hold
   EBREAK =  0.64E-09  absolut break condition
   DEPER  =   0.30     relativ break condition  

   TIME   =   0.40     timestep for ELM

  volume/ion in A,a.u.               =      41.30       278.74
  Fermi-wavevector in a.u.,A,eV,Ry     =   1.016192  1.920325 14.050008  1.032646
  Thomas-Fermi vector in A             =   2.149522
 
 Write flags
   LWAVE        =      F    write WAVECAR
   LDOWNSAMPLE  =      F    k-point downsampling of WAVECAR
   LCHARG       =      F    write CHGCAR
   LVTOT        =      F    write LOCPOT, total local potential
   LVHAR        =      F    write LOCPOT, Hartree potential only
   LELF         =      F    write electronic localiz. function (ELF)
   LORBIT       =      0    0 simple, 1 ext, 2 COOP (PROOUT), +10 PAW based schemes


 Dipole corrections
   LMONO  =      F    monopole corrections only (constant potential shift)
   LDIPOL =      T    correct potential (dipole corrections)
   IDIPOL =      3    1-x, 2-y, 3-z, 4-all directions 
   EPSILON=  1.0000000 bulk dielectric constant

 Exchange correlation treatment:
   GGA     =    PE    GGA type
   LEXCH   =     8    internal setting for exchange type
   VOSKOWN=      0    Vosko Wilk Nusair interpolation
   LHFCALC =     F    Hartree Fock is set to
   LHFONE  =     F    Hartree Fock one center treatment
   AEXX    =    0.0000 exact exchange contribution

 Linear response parameters
   LEPSILON=     F    determine dielectric tensor
   LRPA    =     F    only Hartree local field effects (RPA)
   LNABLA  =     F    use nabla operator in PAW spheres
   LVEL    =     F    velocity operator in full k-point grid
   LINTERFAST=   F  fast interpolation
   KINTER  =     0    interpolate to denser k-point grid
   CSHIFT  =0.1000    complex shift for real part using Kramers Kronig
   OMEGAMAX=  -1.0    maximum frequency
   DEG_THRESHOLD= 0.2000000E-02 threshold for treating states as degnerate
   RTIME   =   -0.100 relaxation time in fs
  (WPLASMAI=    0.000 imaginary part of plasma frequency in eV, 0.658/RTIME)
   DFIELD  = 0.0000000 0.0000000 0.0000000 field for delta impulse in time
 
 Orbital magnetization related:
   ORBITALMAG=     F  switch on orbital magnetization
   LCHIMAG   =     F  perturbation theory with respect to B field
   DQ        =  0.001000  dq finite difference perturbation B field
   LLRAUG    =     F  two centre corrections for induced B field



--------------------------------------------------------------------------------------------------------


 quasi-Newton-method for relaxation of ions
   using selective dynamics as specified on POSCAR
   WARNING: If single coordinates had been selected the selection of coordinates
            is made according to the corresponding   d i r e c t   coordinates!
            Don't support selection of single cartesian coordinates -- sorry ...
  !
 charge density and potential will be updated during run
 non-spin polarized calculation
 RMM-DIIS sequential band-by-band and
  variant of blocked Davidson during initial phase
 perform sub-space diagonalisation
    before iterative eigenvector-optimisation
 modified Broyden-mixing scheme, WC =      100.0
 initial mixing is a Kerker type mixing with AMIX =  0.4000 and BMIX =      1.0000
 Hartree-type preconditioning will be used
 using additional bands           66
 real space projection scheme for non local part
 use partial core corrections
 calculate Harris-corrections to forces 
   (improved forces if not selfconsistent)
 use gradient corrections 
 use of overlap-Matrix (Vanderbilt PP)
 Gauss-broadening in eV      SIGMA  =   0.10


--------------------------------------------------------------------------------------------------------


  energy-cutoff  :      450.00
  volume of cell :     2726.12
      direct lattice vectors                 reciprocal lattice vectors
     9.717792020  0.000000000  0.000000000     0.102904034  0.000000000  0.000000000
     0.000000000 11.221139680  0.000000000     0.000000000  0.089117508  0.000000000
     0.000000000  0.000000000 25.000000000     0.000000000  0.000000000  0.040000000

  length of vectors
     9.717792020 11.221139680 25.000000000     0.102904034  0.089117508  0.040000000


 
 k-points in units of 2pi/SCALE and weight: K-Spacing Value to Generate K-Mesh: 0.03
   0.00000000  0.00000000  0.00000000       0.111
   0.03430134  0.00000000  0.00000000       0.222
   0.00000000  0.02970584  0.00000000       0.222
   0.03430134  0.02970584  0.00000000       0.222
  -0.03430134  0.02970584  0.00000000       0.222
 
 k-points in reciprocal lattice and weights: K-Spacing Value to Generate K-Mesh: 0.03
   0.00000000  0.00000000  0.00000000       0.111
   0.33333333  0.00000000  0.00000000       0.222
   0.00000000  0.33333333  0.00000000       0.222
   0.33333333  0.33333333  0.00000000       0.222
  -0.33333333  0.33333333  0.00000000       0.222
 
 position of ions in fractional coordinates (direct lattice) 
   0.00000000  0.00000000  0.00000000
   0.33333333  0.00000000  0.09162022
   0.16666667  0.00000000  0.18239965
   0.25000000  0.12500000  0.00000000
   0.08333333  0.12500000  0.09162022
   0.41666667  0.12500000  0.18239965
   0.00000000  0.00000000  0.27454374
   0.25000000  0.12500000  0.27454374
   0.00000000  0.25000000  0.00000000
   0.33333333  0.25000000  0.09162022
   0.16666667  0.25000000  0.18239965
   0.25000000  0.37500000  0.00000000
   0.08333333  0.37500000  0.09162022
   0.41666667  0.37500000  0.18239965
   0.00000000  0.25000000  0.27454374
   0.25000000  0.37500000  0.27454374
   0.00000000  0.50000000  0.00000000
   0.33333333  0.50000000  0.09162022
   0.16666667  0.50000000  0.18239965
   0.25000000  0.62500000  0.00000000
   0.08333333  0.62500000  0.09162022
   0.41666667  0.62500000  0.18239965
   0.00000000  0.50000000  0.27454374
   0.25000000  0.62500000  0.27454374
   0.00000000  0.75000000  0.00000000
   0.33333333  0.75000000  0.09162022
   0.16666667  0.75000000  0.18239965
   0.25000000  0.87500000  0.00000000
   0.08333333  0.87500000  0.09162022
   0.41666667  0.87500000  0.18239965
   0.00000000  0.75000000  0.27454374
   0.25000000  0.87500000  0.27454374
   0.50000000  0.00000000  0.00000000
   0.83333333  0.00000000  0.09162022
   0.66666667  0.00000000  0.18239965
   0.75000000  0.12500000  0.00000000
   0.58333333  0.12500000  0.09162022
   0.91666667  0.12500000  0.18239965
   0.50000000  0.00000000  0.27454374
   0.75000000  0.12500000  0.27454374
   0.50000000  0.25000000  0.00000000
   0.83333333  0.25000000  0.09162022
   0.66666667  0.25000000  0.18239965
   0.75000000  0.37500000  0.00000000
   0.58333333  0.37500000  0.09162022
   0.91666667  0.37500000  0.18239965
   0.50000000  0.25000000  0.27454374
   0.75000000  0.37500000  0.27454374
   0.50000000  0.50000000  0.00000000
   0.83333333  0.50000000  0.09162022
   0.66666667  0.50000000  0.18239965
   0.75000000  0.62500000  0.00000000
   0.58333333  0.62500000  0.09162022
   0.91666667  0.62500000  0.18239965
   0.50000000  0.50000000  0.27454374
   0.75000000  0.62500000  0.27454374
   0.50000000  0.75000000  0.00000000
   0.83333333  0.75000000  0.09162022
   0.66666667  0.75000000  0.18239965
   0.75000000  0.87500000  0.00000000
   0.58333333  0.87500000  0.09162022
   0.91666667  0.87500000  0.18239965
   0.50000000  0.75000000  0.27454374
   0.75000000  0.87500000  0.27454374
   0.50000000  0.31238226  0.35454374
   0.50000000  0.43714677  0.35454374
 
 position of ions in cartesian coordinates  (Angst):
   0.00000000  0.00000000  0.00000000
   3.23926402  0.00000000  2.29050552
   1.61963199  0.00000000  4.55999133
   2.42944800  1.40264246  0.00000000
   0.80981602  1.40264246  2.29050552
   4.04907999  1.40264246  4.55999133
   0.00000000  0.00000000  6.86359344
   2.42944800  1.40264246  6.86359344
   0.00000000  2.80528492  0.00000000
   3.23926402  2.80528492  2.29050552
   1.61963199  2.80528492  4.55999133
   2.42944800  4.20792738  0.00000000
   0.80981602  4.20792738  2.29050552
   4.04907999  4.20792738  4.55999133
   0.00000000  2.80528492  6.86359344
   2.42944800  4.20792738  6.86359344
   0.00000000  5.61056984  0.00000000
   3.23926402  5.61056984  2.29050552
   1.61963199  5.61056984  4.55999133
   2.42944800  7.01321230  0.00000000
   0.80981602  7.01321230  2.29050552
   4.04907999  7.01321230  4.55999133
   0.00000000  5.61056984  6.86359344
   2.42944800  7.01321230  6.86359344
   0.00000000  8.41585476  0.00000000
   3.23926402  8.41585476  2.29050552
   1.61963199  8.41585476  4.55999133
   2.42944800  9.81849722  0.00000000
   0.80981602  9.81849722  2.29050552
   4.04907999  9.81849722  4.55999133
   0.00000000  8.41585476  6.86359344
   2.42944800  9.81849722  6.86359344
   4.85889601  0.00000000  0.00000000
   8.09816003  0.00000000  2.29050552
   6.47852800  0.00000000  4.55999133
   7.28834401  1.40264246  0.00000000
   5.66871203  1.40264246  2.29050552
   8.90797600  1.40264246  4.55999133
   4.85889601  0.00000000  6.86359344
   7.28834401  1.40264246  6.86359344
   4.85889601  2.80528492  0.00000000
   8.09816003  2.80528492  2.29050552
   6.47852800  2.80528492  4.55999133
   7.28834401  4.20792738  0.00000000
   5.66871203  4.20792738  2.29050552
   8.90797600  4.20792738  4.55999133
   4.85889601  2.80528492  6.86359344
   7.28834401  4.20792738  6.86359344
   4.85889601  5.61056984  0.00000000
   8.09816003  5.61056984  2.29050552
   6.47852800  5.61056984  4.55999133
   7.28834401  7.01321230  0.00000000
   5.66871203  7.01321230  2.29050552
   8.90797600  7.01321230  4.55999133
   4.85889601  5.61056984  6.86359344
   7.28834401  7.01321230  6.86359344
   4.85889601  8.41585476  0.00000000
   8.09816003  8.41585476  2.29050552
   6.47852800  8.41585476  4.55999133
   7.28834401  9.81849722  0.00000000
   5.66871203  9.81849722  2.29050552
   8.90797600  9.81849722  4.55999133
   4.85889601  8.41585476  6.86359344
   7.28834401  9.81849722  6.86359344
   4.85889601  3.50528492  8.86359344
   4.85889601  4.90528492  8.86359344
 


--------------------------------------------------------------------------------------------------------


 k-point  1 :   0.0000 0.0000 0.0000  plane waves:   59125
 k-point  2 :   0.3333 0.0000 0.0000  plane waves:   59104
 k-point  3 :   0.0000 0.3333 0.0000  plane waves:   59065
 k-point  4 :   0.3333 0.3333 0.0000  plane waves:   59114
 k-point  5 :  -0.3333 0.3333 0.0000  plane waves:   59114

 maximum and minimum number of plane-waves per node :      7413     7353

 maximum number of plane-waves:     59125
 maximum index in each direction: 
   IXMAX=   17   IYMAX=   19   IZMAX=   43
   IXMIN=  -17   IYMIN=  -19   IZMIN=  -43


 real space projection operators:
  total allocation   :      17904.56 KBytes
  max/ min on nodes  :       2522.50       2100.19


 parallel 3D FFT for wavefunctions:
    minimum data exchange during FFTs selected (reduces bandwidth)
 parallel 3D FFT for charge:
    minimum data exchange during FFTs selected (reduces bandwidth)


 total amount of memory used by VASP MPI-rank0    79496. kBytes
=======================================================================

   base      :      30000. kBytes
   nonlr-proj:       5410. kBytes
   fftplans  :       4000. kBytes
   grid      :       6141. kBytes
   one-center:        139. kBytes
   wavefun   :      33806. kBytes
 
     INWAV:  cpu time    0.0000: real time    0.0002
 Broyden mixing: mesh for mixing (old mesh)
   NGX = 33   NGY = 39   NGZ = 87
  (NGX  =100   NGY  =120   NGZ  =280)
  gives a total of 111969 points

 initial charge density was supplied:
 charge density of overlapping atoms calculated
 number of electron     652.0000000 magnetization 
 keeping initial charge density in first step


--------------------------------------------------------------------------------------------------------


 Maximum index for non-local projection operator          396
 Maximum index for augmentation-charges          545 (set IRDMAX)


--------------------------------------------------------------------------------------------------------


 First call to EWALD:  gamma=   0.127
 Maximum number of real-space cells 4x 3x 2
 Maximum number of reciprocal cells 2x 2x 5

    FEWALD:  cpu time    0.0105: real time    0.0127


--------------------------------------- Iteration      1(   1)  ---------------------------------------


    POTLOK:  cpu time    0.0488: real time    0.0548
    SETDIJ:  cpu time    0.0064: real time    0.0065
     EDDAV:  cpu time   12.2337: real time   12.2679
       DOS:  cpu time    0.0012: real time    0.0012
    --------------------------------------------
      LOOP:  cpu time   12.2900: real time   12.3304

 eigenvalue-minimisations  :  3920
 total energy-change (2. order) : 0.4272338E+04  (-0.2674286E+05)
 number of electron     652.0000000 magnetization 
 augmentation part      652.0000000 magnetization 

 DIPCOR: dipole corrections for dipol
 direction  3 min pos   175,
 dipolmoment           0.000000      0.000000     -0.000173 electrons x Angstroem
 Tr[quadrupol]    -12628.362022

 energy correction for charged system         0.000000 eV
 dipol+quadrupol energy correction           -0.000000 eV
 added-field ion interaction          0.003695 eV  (added to PSCEN)


 Free energy of the ion-electron system (eV)
  ---------------------------------------------------
  alpha Z        PSCENC =      1466.11465362
  Ewald energy   TEWEN  =    243206.89619781
  -Hartree energ DENC   =   -293188.07067597
  -exchange      EXHF   =         0.00000000
  -V(xc)+E(xc)   XCENC  =       270.26418418
  PAW double counting   =     45245.00522118   -43438.47517393
  entropy T*S    EENTRO =        -0.14811855
  eigenvalues    EBANDS =      3182.87496401
  atomic energy  EATOM  =     47527.87699037
  Solvation  Ediel_sol  =         0.00000000
  ---------------------------------------------------
  free energy    TOTEN  =      4272.33824273 eV

  energy without entropy =     4272.48636128  energy(sigma->0) =     4272.41230200


--------------------------------------------------------------------------------------------------------




--------------------------------------- Iteration      1(   2)  ---------------------------------------


     EDDAV:  cpu time   14.1906: real time   14.1942
       DOS:  cpu time    0.0012: real time    0.0012
    --------------------------------------------
      LOOP:  cpu time   14.1918: real time   14.1954

 eigenvalue-minimisations  :  4662
 total energy-change (2. order) :-0.4340399E+04  (-0.4004795E+04)
 number of electron     652.0000000 magnetization 
 augmentation part      652.0000000 magnetization 

 DIPCOR: dipole corrections for dipol
 direction  3 min pos   175,
 dipolmoment           0.000000      0.000000     -0.000173 electrons x Angstroem
 Tr[quadrupol]    -12628.362022

 energy correction for charged system         0.000000 eV
 dipol+quadrupol energy correction           -0.000000 eV
 added-field ion interaction          0.003695 eV  (added to PSCEN)


 Free energy of the ion-electron system (eV)
  ---------------------------------------------------
  alpha Z        PSCENC =      1466.11465362
  Ewald energy   TEWEN  =    243206.89619781
  -Hartree energ DENC   =   -293188.07067597
  -exchange      EXHF   =         0.00000000
  -V(xc)+E(xc)   XCENC  =       270.26418418
  PAW double counting   =     45245.00522118   -43438.47517393
  entropy T*S    EENTRO =        -0.26065549
  eigenvalues    EBANDS =     -1157.41191013
  atomic energy  EATOM  =     47527.87699037
  Solvation  Ediel_sol  =         0.00000000
  ---------------------------------------------------
  free energy    TOTEN  =       -68.06116836 eV

  energy without entropy =      -67.80051286  energy(sigma->0) =      -67.93084061


--------------------------------------------------------------------------------------------------------




--------------------------------------- Iteration      1(   3)  ---------------------------------------


     EDDAV:  cpu time   14.1736: real time   14.1769
       DOS:  cpu time    0.0013: real time    0.0013
    --------------------------------------------
      LOOP:  cpu time   14.1748: real time   14.1782

 eigenvalue-minimisations  :  4662
 total energy-change (2. order) :-0.3249764E+03  (-0.2931382E+03)
 number of electron     652.0000000 magnetization 
 augmentation part      652.0000000 magnetization 

 DIPCOR: dipole corrections for dipol
 direction  3 min pos   175,
 dipolmoment           0.000000      0.000000     -0.000173 electrons x Angstroem
 Tr[quadrupol]    -12628.362022

 energy correction for charged system         0.000000 eV
 dipol+quadrupol energy correction           -0.000000 eV
 added-field ion interaction          0.003695 eV  (added to PSCEN)


 Free energy of the ion-electron system (eV)
  ---------------------------------------------------
  alpha Z        PSCENC =      1466.11465362
  Ewald energy   TEWEN  =    243206.89619781
  -Hartree energ DENC   =   -293188.07067597
  -exchange      EXHF   =         0.00000000
  -V(xc)+E(xc)   XCENC  =       270.26418418
  PAW double counting   =     45245.00522118   -43438.47517393
  entropy T*S    EENTRO =        -0.55631298
  eigenvalues    EBANDS =     -1482.09265347
  atomic energy  EATOM  =     47527.87699037
  Solvation  Ediel_sol  =         0.00000000
  ---------------------------------------------------
  free energy    TOTEN  =      -393.03756919 eV

  energy without entropy =     -392.48125621  energy(sigma->0) =     -392.75941270


--------------------------------------------------------------------------------------------------------




--------------------------------------- Iteration      1(   4)  ---------------------------------------


     EDDAV:  cpu time   15.2303: real time   15.2424
       DOS:  cpu time    0.0012: real time    0.0012
    --------------------------------------------
      LOOP:  cpu time   15.2315: real time   15.2436

 eigenvalue-minimisations  :  5054
 total energy-change (2. order) :-0.1497584E+02  (-0.1420269E+02)
 number of electron     652.0000000 magnetization 
 augmentation part      652.0000000 magnetization 

 DIPCOR: dipole corrections for dipol
 direction  3 min pos   175,
 dipolmoment           0.000000      0.000000     -0.000173 electrons x Angstroem
 Tr[quadrupol]    -12628.362022

 energy correction for charged system         0.000000 eV
 dipol+quadrupol energy correction           -0.000000 eV
 added-field ion interaction          0.003695 eV  (added to PSCEN)


 Free energy of the ion-electron system (eV)
  ---------------------------------------------------
  alpha Z        PSCENC =      1466.11465362
  Ewald energy   TEWEN  =    243206.89619781
  -Hartree energ DENC   =   -293188.07067597
  -exchange      EXHF   =         0.00000000
  -V(xc)+E(xc)   XCENC  =       270.26418418
  PAW double counting   =     45245.00522118   -43438.47517393
  entropy T*S    EENTRO =        -0.58444401
  eigenvalues    EBANDS =     -1497.04035845
  atomic energy  EATOM  =     47527.87699037
  Solvation  Ediel_sol  =         0.00000000
  ---------------------------------------------------
  free energy    TOTEN  =      -408.01340519 eV

  energy without entropy =     -407.42896118  energy(sigma->0) =     -407.72118318


--------------------------------------------------------------------------------------------------------




--------------------------------------- Iteration      1(   5)  ---------------------------------------


     EDDAV:  cpu time   16.5898: real time   16.6034
       DOS:  cpu time    0.0013: real time    0.0013
    CHARGE:  cpu time    0.2620: real time    0.2622
    MIXING:  cpu time    0.0023: real time    0.0025
    --------------------------------------------
      LOOP:  cpu time   16.8554: real time   16.8694

 eigenvalue-minimisations  :  5558
 total energy-change (2. order) :-0.4415731E+00  (-0.4371761E+00)
 number of electron     651.9999874 magnetization 
 augmentation part      187.4063767 magnetization 

 DIPCOR: dipole corrections for dipol
 direction  3 min pos   175,
 dipolmoment           0.000000      0.000000     -0.000173 electrons x Angstroem
 Tr[quadrupol]    -12628.362022

 energy correction for charged system         0.000000 eV
 dipol+quadrupol energy correction           -0.000000 eV
 added-field ion interaction          0.003695 eV  (added to PSCEN)


 Broyden mixing:
  rms(total) = 0.82237E+01    rms(broyden)= 0.82231E+01
  rms(prec ) = 0.83327E+01
  weight for this iteration     100.00

 Free energy of the ion-electron system (eV)
  ---------------------------------------------------
  alpha Z        PSCENC =      1466.11465362
  Ewald energy   TEWEN  =    243206.89619781
  -Hartree energ DENC   =   -293188.07067597
  -exchange      EXHF   =         0.00000000
  -V(xc)+E(xc)   XCENC  =       270.26418418
  PAW double counting   =     45245.00522118   -43438.47517393
  entropy T*S    EENTRO =        -0.58509371
  eigenvalues    EBANDS =     -1497.48128189
  atomic energy  EATOM  =     47527.87699037
  Solvation  Ediel_sol  =         0.00000000
  ---------------------------------------------------
  free energy    TOTEN  =      -408.45497833 eV

  energy without entropy =     -407.86988462  energy(sigma->0) =     -408.16243148


--------------------------------------------------------------------------------------------------------




--------------------------------------- Iteration      1(   6)  ---------------------------------------


    POTLOK:  cpu time    0.0453: real time    0.0485
    SETDIJ:  cpu time    0.0062: real time    0.0062
    EDDIAG:  cpu time    2.0616: real time    2.0624
  RMM-DIIS:  cpu time    6.4951: real time    6.4965
    ORTHCH:  cpu time    0.9022: real time    0.9024
       DOS:  cpu time    0.0014: real time    0.0014
    CHARGE:  cpu time    0.2568: real time    0.2568
    MIXING:  cpu time    0.0018: real time    0.0020
    --------------------------------------------
      LOOP:  cpu time    9.7705: real time    9.7762

 eigenvalue-minimisations  :  3937
 total energy-change (2. order) : 0.9937943E+01  (-0.7617648E+01)
 number of electron     651.9999818 magnetization 
 augmentation part      198.6667581 magnetization 

 DIPCOR: dipole corrections for dipol
 direction  3 min pos   189,
 dipolmoment           0.000000      0.000000      0.486732 electrons x Angstroem
 Tr[quadrupol]    -12617.564272

 energy correction for charged system         0.000000 eV
 dipol+quadrupol energy correction           -0.007863 eV
 added-field ion interaction         15.950344 eV  (added to PSCEN)


 Broyden mixing:
  rms(total) = 0.64682E+01    rms(broyden)= 0.64673E+01
  rms(prec ) = 0.70418E+01
  weight for this iteration     100.00

 eigenvalues of (default mixing * dielectric matrix)
  average eigenvalue GAMMA=   0.9959
  0.9959

 Free energy of the ion-electron system (eV)
  ---------------------------------------------------
  alpha Z        PSCENC =      1482.05343911
  Ewald energy   TEWEN  =    243206.89619781
  -Hartree energ DENC   =   -292391.42710084
  -exchange      EXHF   =         0.00000000
  -V(xc)+E(xc)   XCENC  =       254.99497173
  PAW double counting   =     49718.46656191   -48005.27025533
  entropy T*S    EENTRO =        -0.54018824
  eigenvalues    EBANDS =     -2191.56765227
  atomic energy  EATOM  =     47527.87699037
  Solvation  Ediel_sol  =         0.00000000
  ---------------------------------------------------
  free energy    TOTEN  =      -398.51703576 eV

  energy without entropy =     -397.97684752  energy(sigma->0) =     -398.24694164


--------------------------------------------------------------------------------------------------------




--------------------------------------- Iteration      1(   7)  ---------------------------------------


    POTLOK:  cpu time    0.0430: real time    0.0432
    SETDIJ:  cpu time    0.0063: real time    0.0063
    EDDIAG:  cpu time    2.0588: real time    2.0592
  RMM-DIIS:  cpu time    6.8349: real time    6.8362
    ORTHCH:  cpu time    0.9044: real time    0.9046
       DOS:  cpu time    0.0014: real time    0.0014
    CHARGE:  cpu time    0.2588: real time    0.2588
    MIXING:  cpu time    0.0016: real time    0.0016
    --------------------------------------------
      LOOP:  cpu time   10.1092: real time   10.1113

 eigenvalue-minimisations  :  4170
 total energy-change (2. order) :-0.1719796E+03  (-0.2773724E+02)
 number of electron     651.9999877 magnetization 
 augmentation part      192.5262130 magnetization 

 DIPCOR: dipole corrections for dipol
 direction  3 min pos   186,
 dipolmoment           0.000000      0.000000     -4.380152 electrons x Angstroem
 Tr[quadrupol]    -12633.252842

 energy correction for charged system         0.000000 eV
 dipol+quadrupol energy correction           -0.636790 eV
 added-field ion interaction        -92.759763 eV  (added to PSCEN)


 Broyden mixing:
  rms(total) = 0.93789E+01    rms(broyden)= 0.93784E+01
  rms(prec ) = 0.12885E+02
  weight for this iteration     100.00

 eigenvalues of (default mixing * dielectric matrix)
  average eigenvalue GAMMA=   0.8619
  1.5217  0.2021

 Free energy of the ion-electron system (eV)
  ---------------------------------------------------
  alpha Z        PSCENC =      1372.71440521
  Ewald energy   TEWEN  =    243206.89619781
  -Hartree energ DENC   =   -292910.57221312
  -exchange      EXHF   =         0.00000000
  -V(xc)+E(xc)   XCENC  =       249.42417465
  PAW double counting   =     52138.73598318   -50450.81178738
  entropy T*S    EENTRO =        -0.43621660
  eigenvalues    EBANDS =     -1704.32417385
  atomic energy  EATOM  =     47527.87699037
  Solvation  Ediel_sol  =         0.00000000
  ---------------------------------------------------
  free energy    TOTEN  =      -570.49663972 eV

  energy without entropy =     -570.06042312  energy(sigma->0) =     -570.27853142


--------------------------------------------------------------------------------------------------------




--------------------------------------- Iteration      1(   8)  ---------------------------------------


    POTLOK:  cpu time    0.0416: real time    0.0418
    SETDIJ:  cpu time    0.0063: real time    0.0063
    EDDIAG:  cpu time    2.0589: real time    2.0592
  RMM-DIIS:  cpu time    7.0427: real time    7.0442
    ORTHCH:  cpu time    0.9042: real time    0.9044
       DOS:  cpu time    0.0015: real time    0.0015
    CHARGE:  cpu time    0.2582: real time    0.2582
    MIXING:  cpu time    0.0016: real time    0.0017
    --------------------------------------------
      LOOP:  cpu time   10.3151: real time   10.3172

 eigenvalue-minimisations  :  3923
 total energy-change (2. order) : 0.4555392E+02  (-0.1506674E+02)
 number of electron     651.9999881 magnetization 
 augmentation part      195.3872691 magnetization 

 DIPCOR: dipole corrections for dipol
 direction  3 min pos   182,
 dipolmoment           0.000000      0.000000      2.547445 electrons x Angstroem
 Tr[quadrupol]    -12642.036430

 energy correction for charged system         0.000000 eV
 dipol+quadrupol energy correction           -0.215391 eV
 added-field ion interaction         14.571252 eV  (added to PSCEN)


 Broyden mixing:
  rms(total) = 0.87338E+01    rms(broyden)= 0.87333E+01
  rms(prec ) = 0.11105E+02
  weight for this iteration     100.00

 eigenvalues of (default mixing * dielectric matrix)
  average eigenvalue GAMMA=   0.8518
  2.1343  0.2533  0.1678

 Free energy of the ion-electron system (eV)
  ---------------------------------------------------
  alpha Z        PSCENC =      1480.46681946
  Ewald energy   TEWEN  =    243206.89619781
  -Hartree energ DENC   =   -292943.90135906
  -exchange      EXHF   =         0.00000000
  -V(xc)+E(xc)   XCENC  =       246.37711399
  PAW double counting   =     53987.26169528   -52325.53881829
  entropy T*S    EENTRO =        -0.35694353
  eigenvalues    EBANDS =     -1704.02442020
  atomic energy  EATOM  =     47527.87699037
  Solvation  Ediel_sol  =         0.00000000
  ---------------------------------------------------
  free energy    TOTEN  =      -524.94272415 eV

  energy without entropy =     -524.58578063  energy(sigma->0) =     -524.76425239


--------------------------------------------------------------------------------------------------------




--------------------------------------- Iteration      1(   9)  ---------------------------------------


    POTLOK:  cpu time    0.0422: real time    0.0424
    SETDIJ:  cpu time    0.0062: real time    0.0063
    EDDIAG:  cpu time    2.0599: real time    2.0601
  RMM-DIIS:  cpu time    6.3663: real time    6.3679
    ORTHCH:  cpu time    0.9092: real time    0.9094
       DOS:  cpu time    0.0014: real time    0.0014
    CHARGE:  cpu time    0.2649: real time    0.2649
    MIXING:  cpu time    0.0017: real time    0.0017
    --------------------------------------------
      LOOP:  cpu time    9.6519: real time    9.6541

 eigenvalue-minimisations  :  3932
 total energy-change (2. order) : 0.1164327E+03  (-0.7056725E+01)
 number of electron     651.9999848 magnetization 
 augmentation part      200.9087030 magnetization 

 DIPCOR: dipole corrections for dipol
 direction  3 min pos   182,
 dipolmoment           0.000000      0.000000     -0.424295 electrons x Angstroem
 Tr[quadrupol]    -12629.704597

 energy correction for charged system         0.000000 eV
 dipol+quadrupol energy correction           -0.005975 eV
 added-field ion interaction         -2.426946 eV  (added to PSCEN)


 Broyden mixing:
  rms(total) = 0.43842E+01    rms(broyden)= 0.43841E+01
  rms(prec ) = 0.55608E+01
  weight for this iteration     100.00

 eigenvalues of (default mixing * dielectric matrix)
  average eigenvalue GAMMA=   0.7678
  2.0510  0.4411  0.4411  0.1379

 Free energy of the ion-electron system (eV)
  ---------------------------------------------------
  alpha Z        PSCENC =      1463.67803753
  Ewald energy   TEWEN  =    243206.89619781
  -Hartree energ DENC   =   -292504.72791863
  -exchange      EXHF   =         0.00000000
  -V(xc)+E(xc)   XCENC  =       243.30531887
  PAW double counting   =     56727.82379499   -55104.07819426
  entropy T*S    EENTRO =        -0.37256273
  eigenvalues    EBANDS =     -1968.91166987
  atomic energy  EATOM  =     47527.87699037
  Solvation  Ediel_sol  =         0.00000000
  ---------------------------------------------------
  free energy    TOTEN  =      -408.51000591 eV

  energy without entropy =     -408.13744318  energy(sigma->0) =     -408.32372455


--------------------------------------------------------------------------------------------------------




--------------------------------------- Iteration      1(  10)  ---------------------------------------


    POTLOK:  cpu time    0.0441: real time    0.0442
    SETDIJ:  cpu time    0.0158: real time    0.0158
    EDDIAG:  cpu time    2.0606: real time    2.0610
  RMM-DIIS:  cpu time    6.3189: real time    6.3200
    ORTHCH:  cpu time    0.9019: real time    0.9021
       DOS:  cpu time    0.0014: real time    0.0014
    CHARGE:  cpu time    0.2587: real time    0.2589
    MIXING:  cpu time    0.0020: real time    0.0020
    --------------------------------------------
      LOOP:  cpu time    9.6033: real time    9.6054

 eigenvalue-minimisations  :  3928
 total energy-change (2. order) :-0.1687513E+01  (-0.6016203E+01)
 number of electron     651.9999835 magnetization 
 augmentation part      200.7954236 magnetization 

 DIPCOR: dipole corrections for dipol
 direction  3 min pos   178,
 dipolmoment           0.000000      0.000000     -1.087097 electrons x Angstroem
 Tr[quadrupol]    -12623.483525

 energy correction for charged system         0.000000 eV
 dipol+quadrupol energy correction           -0.039224 eV
 added-field ion interaction         10.585493 eV  (added to PSCEN)


 Broyden mixing:
  rms(total) = 0.46536E+01    rms(broyden)= 0.46535E+01
  rms(prec ) = 0.65606E+01
  weight for this iteration     100.00

 eigenvalues of (default mixing * dielectric matrix)
  average eigenvalue GAMMA=   0.7232
  2.1118  0.8157  0.1429  0.2911  0.2546

 Free energy of the ion-electron system (eV)
  ---------------------------------------------------
  alpha Z        PSCENC =      1476.65722664
  Ewald energy   TEWEN  =    243206.89619781
  -Hartree energ DENC   =   -292354.78117861
  -exchange      EXHF   =         0.00000000
  -V(xc)+E(xc)   XCENC  =       245.86308849
  PAW double counting   =     56829.22612316   -55199.69834793
  entropy T*S    EENTRO =        -0.43191369
  eigenvalues    EBANDS =     -2141.80570550
  atomic energy  EATOM  =     47527.87699037
  Solvation  Ediel_sol  =         0.00000000
  ---------------------------------------------------
  free energy    TOTEN  =      -410.19751924 eV

  energy without entropy =     -409.76560556  energy(sigma->0) =     -409.98156240


--------------------------------------------------------------------------------------------------------




--------------------------------------- Iteration      1(  11)  ---------------------------------------


    POTLOK:  cpu time    0.0468: real time    0.0555
    SETDIJ:  cpu time    0.0061: real time    0.0061
    EDDIAG:  cpu time    2.0606: real time    2.0621
  RMM-DIIS:  cpu time    6.3765: real time    6.3791
    ORTHCH:  cpu time    0.9050: real time    0.9065
       DOS:  cpu time    0.0014: real time    0.0014
    CHARGE:  cpu time    0.2607: real time    0.2607
    MIXING:  cpu time    0.0020: real time    0.0021
    --------------------------------------------
      LOOP:  cpu time    9.6592: real time    9.6735

 eigenvalue-minimisations  :  3931
 total energy-change (2. order) : 0.6941931E+01  (-0.1985083E+01)
 number of electron     651.9999840 magnetization 
 augmentation part      200.2271091 magnetization 

 DIPCOR: dipole corrections for dipol
 direction  3 min pos   184,
 dipolmoment           0.000000      0.000000      0.923954 electrons x Angstroem
 Tr[quadrupol]    -12624.255271

 energy correction for charged system         0.000000 eV
 dipol+quadrupol energy correction           -0.028335 eV
 added-field ion interaction         12.425910 eV  (added to PSCEN)


 Broyden mixing:
  rms(total) = 0.43460E+01    rms(broyden)= 0.43456E+01
  rms(prec ) = 0.63852E+01
  weight for this iteration     100.00

 eigenvalues of (default mixing * dielectric matrix)
  average eigenvalue GAMMA=   0.6754
  2.2580  0.8019  0.3373  0.3373  0.1590  0.1590

 Free energy of the ion-electron system (eV)
  ---------------------------------------------------
  alpha Z        PSCENC =      1478.50853338
  Ewald energy   TEWEN  =    243206.89619781
  -Hartree energ DENC   =   -292412.84529414
  -exchange      EXHF   =         0.00000000
  -V(xc)+E(xc)   XCENC  =       247.51133138
  PAW double counting   =     57132.29911956   -55501.13510917
  entropy T*S    EENTRO =        -0.33687489
  eigenvalues    EBANDS =     -2082.03048245
  atomic energy  EATOM  =     47527.87699037
  Solvation  Ediel_sol  =         0.00000000
  ---------------------------------------------------
  free energy    TOTEN  =      -403.25558815 eV

  energy without entropy =     -402.91871327  energy(sigma->0) =     -403.08715071


--------------------------------------------------------------------------------------------------------




--------------------------------------- Iteration      1(  12)  ---------------------------------------


    POTLOK:  cpu time    0.0446: real time    0.0477
    SETDIJ:  cpu time    0.0062: real time    0.0062
    EDDIAG:  cpu time    2.0606: real time    2.0615
  RMM-DIIS:  cpu time    6.3193: real time    6.3207
    ORTHCH:  cpu time    0.9016: real time    0.9018
       DOS:  cpu time    0.0015: real time    0.0015
    CHARGE:  cpu time    0.2597: real time    0.2597
    MIXING:  cpu time    0.0021: real time    0.0021
    --------------------------------------------
      LOOP:  cpu time    9.5955: real time    9.6011

 eigenvalue-minimisations  :  3938
 total energy-change (2. order) : 0.1785611E+02  (-0.5008564E+00)
 number of electron     651.9999835 magnetization 
 augmentation part      200.6165201 magnetization 

 DIPCOR: dipole corrections for dipol
 direction  3 min pos   189,
 dipolmoment           0.000000      0.000000      0.324804 electrons x Angstroem
 Tr[quadrupol]    -12625.653209

 energy correction for charged system         0.000000 eV
 dipol+quadrupol energy correction           -0.003502 eV
 added-field ion interaction         10.643911 eV  (added to PSCEN)


 Broyden mixing:
  rms(total) = 0.21309E+01    rms(broyden)= 0.21299E+01
  rms(prec ) = 0.26997E+01
  weight for this iteration     100.00

 eigenvalues of (default mixing * dielectric matrix)
  average eigenvalue GAMMA=   0.6283
  2.0581  0.9501  0.3609  0.3609  0.3544  0.1569  0.1569

 Free energy of the ion-electron system (eV)
  ---------------------------------------------------
  alpha Z        PSCENC =      1476.75136811
  Ewald energy   TEWEN  =    243206.89619781
  -Hartree energ DENC   =   -292452.60395555
  -exchange      EXHF   =         0.00000000
  -V(xc)+E(xc)   XCENC  =       247.16450692
  PAW double counting   =     57441.82402076   -55815.67150251
  entropy T*S    EENTRO =        -0.55997880
  eigenvalues    EBANDS =     -2017.07712612
  atomic energy  EATOM  =     47527.87699037
  Solvation  Ediel_sol  =         0.00000000
  ---------------------------------------------------
  free energy    TOTEN  =      -385.39947900 eV

  energy without entropy =     -384.83950021  energy(sigma->0) =     -385.11948961


--------------------------------------------------------------------------------------------------------




--------------------------------------- Iteration      1(  13)  ---------------------------------------


    POTLOK:  cpu time    0.0438: real time    0.0441
    SETDIJ:  cpu time    0.0062: real time    0.0062
    EDDIAG:  cpu time    2.0639: real time    2.0647
  RMM-DIIS:  cpu time    6.3260: real time    6.3271
    ORTHCH:  cpu time    0.9068: real time    0.9070
       DOS:  cpu time    0.0015: real time    0.0015
    CHARGE:  cpu time    0.2710: real time    0.2712
    MIXING:  cpu time    0.0022: real time    0.0022
    --------------------------------------------
      LOOP:  cpu time    9.6215: real time    9.6241

 eigenvalue-minimisations  :  3934
 total energy-change (2. order) : 0.3045280E+01  (-0.2293899E+00)
 number of electron     651.9999855 magnetization 
 augmentation part      200.0436241 magnetization 

 DIPCOR: dipole corrections for dipol
 direction  3 min pos   189,
 dipolmoment           0.000000      0.000000      0.139653 electrons x Angstroem
 Tr[quadrupol]    -12625.554598

 energy correction for charged system         0.000000 eV
 dipol+quadrupol energy correction           -0.000647 eV
 added-field ion interaction          4.576462 eV  (added to PSCEN)


 Broyden mixing:
  rms(total) = 0.12583E+01    rms(broyden)= 0.12561E+01
  rms(prec ) = 0.14252E+01
  weight for this iteration     100.00

 eigenvalues of (default mixing * dielectric matrix)
  average eigenvalue GAMMA=   0.5958
  2.0247  0.7195  0.7195  0.3657  0.3657  0.2496  0.1610  0.1610

 Free energy of the ion-electron system (eV)
  ---------------------------------------------------
  alpha Z        PSCENC =      1470.68677343
  Ewald energy   TEWEN  =    243206.89619781
  -Hartree energ DENC   =   -292460.63378718
  -exchange      EXHF   =         0.00000000
  -V(xc)+E(xc)   XCENC  =       247.24611690
  PAW double counting   =     57207.53762309   -55577.70285224
  entropy T*S    EENTRO =        -0.64685158
  eigenvalues    EBANDS =     -2003.61440957
  atomic energy  EATOM  =     47527.87699037
  Solvation  Ediel_sol  =         0.00000000
  ---------------------------------------------------
  free energy    TOTEN  =      -382.35419897 eV

  energy without entropy =     -381.70734739  energy(sigma->0) =     -382.03077318


--------------------------------------------------------------------------------------------------------




--------------------------------------- Iteration      1(  14)  ---------------------------------------


    POTLOK:  cpu time    0.0440: real time    0.0442
    SETDIJ:  cpu time    0.0061: real time    0.0061
    EDDIAG:  cpu time    2.0609: real time    2.0613
  RMM-DIIS:  cpu time    6.5397: real time    6.5409
    ORTHCH:  cpu time    0.9035: real time    0.9037
       DOS:  cpu time    0.0015: real time    0.0015
    CHARGE:  cpu time    0.2615: real time    0.2615
    MIXING:  cpu time    0.0022: real time    0.0022
    --------------------------------------------
      LOOP:  cpu time    9.8196: real time    9.8215

 eigenvalue-minimisations  :  3943
 total energy-change (2. order) : 0.5562024E+00  (-0.7598801E-01)
 number of electron     651.9999848 magnetization 
 augmentation part      200.1941950 magnetization 

 DIPCOR: dipole corrections for dipol
 direction  3 min pos   193,
 dipolmoment           0.000000      0.000000      0.008892 electrons x Angstroem
 Tr[quadrupol]    -12624.902158

 energy correction for charged system         0.000000 eV
 dipol+quadrupol energy correction           -0.000003 eV
 added-field ion interaction          0.428846 eV  (added to PSCEN)


 Broyden mixing:
  rms(total) = 0.86644E+00    rms(broyden)= 0.86641E+00
  rms(prec ) = 0.11278E+01
  weight for this iteration     100.00

 eigenvalues of (default mixing * dielectric matrix)
  average eigenvalue GAMMA=   0.5972
  2.0526  0.8225  0.8225  0.4145  0.3502  0.3502  0.2481  0.1569  0.1569

 Free energy of the ion-electron system (eV)
  ---------------------------------------------------
  alpha Z        PSCENC =      1466.53980175
  Ewald energy   TEWEN  =    243206.89619781
  -Hartree energ DENC   =   -292451.30618819
  -exchange      EXHF   =         0.00000000
  -V(xc)+E(xc)   XCENC  =       247.37444000
  PAW double counting   =     57096.43943258   -55465.84563755
  entropy T*S    EENTRO =        -0.68982325
  eigenvalues    EBANDS =     -2009.08321012
  atomic energy  EATOM  =     47527.87699037
  Solvation  Ediel_sol  =         0.00000000
  ---------------------------------------------------
  free energy    TOTEN  =      -381.79799660 eV

  energy without entropy =     -381.10817335  energy(sigma->0) =     -381.45308497


--------------------------------------------------------------------------------------------------------




--------------------------------------- Iteration      1(  15)  ---------------------------------------


    POTLOK:  cpu time    0.0439: real time    0.0441
    SETDIJ:  cpu time    0.0062: real time    0.0062
    EDDIAG:  cpu time    2.0839: real time    2.0841
  RMM-DIIS:  cpu time    6.3229: real time    6.3243
    ORTHCH:  cpu time    0.9004: real time    0.9006
       DOS:  cpu time    0.0015: real time    0.0015
    CHARGE:  cpu time    0.2583: real time    0.2584
    MIXING:  cpu time    0.0025: real time    0.0025
    --------------------------------------------
      LOOP:  cpu time    9.6197: real time    9.6217

 eigenvalue-minimisations  :  3940
 total energy-change (2. order) :-0.2614769E-02  (-0.4809121E-01)
 number of electron     651.9999844 magnetization 
 augmentation part      200.2409201 magnetization 

 DIPCOR: dipole corrections for dipol
 direction  3 min pos   195,
 dipolmoment           0.000000      0.000000      0.001371 electrons x Angstroem
 Tr[quadrupol]    -12625.253769

 energy correction for charged system         0.000000 eV
 dipol+quadrupol energy correction           -0.000000 eV
 added-field ion interaction          0.076692 eV  (added to PSCEN)


 Broyden mixing:
  rms(total) = 0.89049E+00    rms(broyden)= 0.89032E+00
  rms(prec ) = 0.12102E+01
  weight for this iteration     100.00

 eigenvalues of (default mixing * dielectric matrix)
  average eigenvalue GAMMA=   0.5936
  2.0753  0.7657  0.7657  0.7139  0.4190  0.4190  0.1585  0.1585  0.2302  0.2302

 Free energy of the ion-electron system (eV)
  ---------------------------------------------------
  alpha Z        PSCENC =      1466.18765073
  Ewald energy   TEWEN  =    243206.89619781
  -Hartree energ DENC   =   -292461.37898147
  -exchange      EXHF   =         0.00000000
  -V(xc)+E(xc)   XCENC  =       247.44843097
  PAW double counting   =     57104.84102297   -55474.36052502
  entropy T*S    EENTRO =        -0.66156769
  eigenvalues    EBANDS =     -1998.64983004
  atomic energy  EATOM  =     47527.87699037
  Solvation  Ediel_sol  =         0.00000000
  ---------------------------------------------------
  free energy    TOTEN  =      -381.80061137 eV

  energy without entropy =     -381.13904368  energy(sigma->0) =     -381.46982752


--------------------------------------------------------------------------------------------------------




--------------------------------------- Iteration      1(  16)  ---------------------------------------


    POTLOK:  cpu time    0.0444: real time    0.0445
    SETDIJ:  cpu time    0.0063: real time    0.0063
    EDDIAG:  cpu time    2.0641: real time    2.0643
  RMM-DIIS:  cpu time    6.3745: real time    6.3756
    ORTHCH:  cpu time    0.9031: real time    0.9033
       DOS:  cpu time    0.0015: real time    0.0015
    CHARGE:  cpu time    0.2627: real time    0.2628
    MIXING:  cpu time    0.0028: real time    0.0028
    --------------------------------------------
      LOOP:  cpu time    9.6592: real time    9.6611

 eigenvalue-minimisations  :  3937
 total energy-change (2. order) : 0.2542641E+00  (-0.3032384E-01)
 number of electron     651.9999849 magnetization 
 augmentation part      200.0794962 magnetization 

 DIPCOR: dipole corrections for dipol
 direction  3 min pos   193,
 dipolmoment           0.000000      0.000000      0.030421 electrons x Angstroem
 Tr[quadrupol]    -12625.712737

 energy correction for charged system         0.000000 eV
 dipol+quadrupol energy correction           -0.000031 eV
 added-field ion interaction          1.467131 eV  (added to PSCEN)


 Broyden mixing:
  rms(total) = 0.76724E+00    rms(broyden)= 0.76718E+00
  rms(prec ) = 0.98236E+00
  weight for this iteration     100.00

 eigenvalues of (default mixing * dielectric matrix)
  average eigenvalue GAMMA=   0.5850
  2.0631  0.8892  0.8200  0.8200  0.4023  0.4023  0.2794  0.2794  0.1578  0.1578
  0.1640

 Free energy of the ion-electron system (eV)
  ---------------------------------------------------
  alpha Z        PSCENC =      1467.57805853
  Ewald energy   TEWEN  =    243206.89619781
  -Hartree energ DENC   =   -292476.48668955
  -exchange      EXHF   =         0.00000000
  -V(xc)+E(xc)   XCENC  =       247.50090920
  PAW double counting   =     57148.66299308   -55518.10848098
  entropy T*S    EENTRO =        -0.67308735
  eigenvalues    EBANDS =     -1984.79323841
  atomic energy  EATOM  =     47527.87699037
  Solvation  Ediel_sol  =         0.00000000
  ---------------------------------------------------
  free energy    TOTEN  =      -381.54634731 eV

  energy without entropy =     -380.87325996  energy(sigma->0) =     -381.20980363


--------------------------------------------------------------------------------------------------------




--------------------------------------- Iteration      1(  17)  ---------------------------------------


    POTLOK:  cpu time    0.0450: real time    0.0456
    SETDIJ:  cpu time    0.0062: real time    0.0062
    EDDIAG:  cpu time    2.0666: real time    2.0689
  RMM-DIIS:  cpu time    6.3292: real time    6.3304
    ORTHCH:  cpu time    0.9063: real time    0.9067
       DOS:  cpu time    0.0015: real time    0.0015
    CHARGE:  cpu time    0.2636: real time    0.2636
    MIXING:  cpu time    0.0029: real time    0.0029
    --------------------------------------------
      LOOP:  cpu time    9.6213: real time    9.6258

 eigenvalue-minimisations  :  3938
 total energy-change (2. order) : 0.3306921E+00  (-0.1253635E-01)
 number of electron     651.9999848 magnetization 
 augmentation part      200.0593199 magnetization 

 DIPCOR: dipole corrections for dipol
 direction  3 min pos   192,
 dipolmoment           0.000000      0.000000      0.092918 electrons x Angstroem
 Tr[quadrupol]    -12625.860356

 energy correction for charged system         0.000000 eV
 dipol+quadrupol energy correction           -0.000287 eV
 added-field ion interaction          4.122171 eV  (added to PSCEN)


 Broyden mixing:
  rms(total) = 0.50335E+00    rms(broyden)= 0.50330E+00
  rms(prec ) = 0.57342E+00
  weight for this iteration     100.00

 eigenvalues of (default mixing * dielectric matrix)
  average eigenvalue GAMMA=   0.5846
  2.0411  0.9677  0.9677  0.7075  0.6238  0.3307  0.3307  0.3523  0.2086  0.1577
  0.1577  0.1700

 Free energy of the ion-electron system (eV)
  ---------------------------------------------------
  alpha Z        PSCENC =      1470.23284304
  Ewald energy   TEWEN  =    243206.89619781
  -Hartree energ DENC   =   -292479.95529067
  -exchange      EXHF   =         0.00000000
  -V(xc)+E(xc)   XCENC  =       247.59932067
  PAW double counting   =     57155.29787042   -55524.35630779
  entropy T*S    EENTRO =        -0.68337397
  eigenvalues    EBANDS =     -1984.12390505
  atomic energy  EATOM  =     47527.87699037
  Solvation  Ediel_sol  =         0.00000000
  ---------------------------------------------------
  free energy    TOTEN  =      -381.21565518 eV

  energy without entropy =     -380.53228121  energy(sigma->0) =     -380.87396819


--------------------------------------------------------------------------------------------------------




--------------------------------------- Iteration      1(  18)  ---------------------------------------


    POTLOK:  cpu time    0.0459: real time    0.0550
    SETDIJ:  cpu time    0.0063: real time    0.0063
    EDDIAG:  cpu time    2.0679: real time    2.0687
  RMM-DIIS:  cpu time    6.3826: real time    6.3838
    ORTHCH:  cpu time    0.8977: real time    0.8979
       DOS:  cpu time    0.0015: real time    0.0015
    CHARGE:  cpu time    0.2637: real time    0.2637
    MIXING:  cpu time    0.0029: real time    0.0029
    --------------------------------------------
      LOOP:  cpu time    9.6685: real time    9.6797

 eigenvalue-minimisations  :  3947
 total energy-change (2. order) : 0.6235837E-01  (-0.5167453E-02)
 number of electron     651.9999846 magnetization 
 augmentation part      200.0742740 magnetization 

 DIPCOR: dipole corrections for dipol
 direction  3 min pos   191,
 dipolmoment           0.000000      0.000000      0.136234 electrons x Angstroem
 Tr[quadrupol]    -12625.936826

 energy correction for charged system         0.000000 eV
 dipol+quadrupol energy correction           -0.000616 eV
 added-field ion interaction          5.517336 eV  (added to PSCEN)


 Broyden mixing:
  rms(total) = 0.45425E+00    rms(broyden)= 0.45418E+00
  rms(prec ) = 0.52559E+00
  weight for this iteration     100.00

 eigenvalues of (default mixing * dielectric matrix)
  average eigenvalue GAMMA=   0.6230
  2.0354  1.2904  1.2904  0.6796  0.6796  0.4617  0.3571  0.3571  0.2359  0.2359
  0.1579  0.1579  0.1595

 Free energy of the ion-electron system (eV)
  ---------------------------------------------------
  alpha Z        PSCENC =      1471.62767837
  Ewald energy   TEWEN  =    243206.89619781
  -Hartree energ DENC   =   -292480.69546699
  -exchange      EXHF   =         0.00000000
  -V(xc)+E(xc)   XCENC  =       247.66629090
  PAW double counting   =     57140.32816642   -55508.97766001
  entropy T*S    EENTRO =        -0.68496931
  eigenvalues    EBANDS =     -1985.19052438
  atomic energy  EATOM  =     47527.87699037
  Solvation  Ediel_sol  =         0.00000000
  ---------------------------------------------------
  free energy    TOTEN  =      -381.15329681 eV

  energy without entropy =     -380.46832750  energy(sigma->0) =     -380.81081215


--------------------------------------------------------------------------------------------------------




--------------------------------------- Iteration      1(  19)  ---------------------------------------


    POTLOK:  cpu time    0.0456: real time    0.0467
    SETDIJ:  cpu time    0.0062: real time    0.0062
    EDDIAG:  cpu time    2.0667: real time    2.0672
  RMM-DIIS:  cpu time    6.2801: real time    6.2813
    ORTHCH:  cpu time    0.9019: real time    0.9035
       DOS:  cpu time    0.0016: real time    0.0015
    CHARGE:  cpu time    0.2638: real time    0.2640
    MIXING:  cpu time    0.0032: real time    0.0032
    --------------------------------------------
      LOOP:  cpu time    9.5690: real time    9.5734

 eigenvalue-minimisations  :  3935
 total energy-change (2. order) : 0.5595964E-03  (-0.4390600E-02)
 number of electron     651.9999849 magnetization 
 augmentation part      200.0194043 magnetization 

 DIPCOR: dipole corrections for dipol
 direction  3 min pos   191,
 dipolmoment           0.000000      0.000000      0.125134 electrons x Angstroem
 Tr[quadrupol]    -12626.092263

 energy correction for charged system         0.000000 eV
 dipol+quadrupol energy correction           -0.000520 eV
 added-field ion interaction          5.067801 eV  (added to PSCEN)


 Broyden mixing:
  rms(total) = 0.43036E+00    rms(broyden)= 0.43024E+00
  rms(prec ) = 0.50735E+00
  weight for this iteration     100.00

[...]
    FORHAR:  cpu time    0.0266: real time    0.0266
    MIXING:  cpu time    0.0020: real time    0.0020
    OFIELD:  cpu time    0.0001: real time    0.0000

 ---------------------------------------------------------------------------------------------

         DFTD3 V3.0 Rev 1        
 Edisp (eV)  -35.06748

 E6    (eV) :   -13.1978
 E8    (eV) :   -21.8696
 % E8        : 62.36
    FORVDW:  cpu time    0.2790: real time    0.3139

  FORCE on cell =-STRESS in cart. coord.  units (eV):
  Direction    XX          YY          ZZ          XY          YZ          ZX
  --------------------------------------------------------------------------------------
  Alpha Z  1466.11096  1466.11096  1466.11096
  Ewald  283375.91241283825.33034************    -0.00366     0.10055    -4.19347
  Hartree294092.63628294308.33268************    -0.02409     0.05381    -1.34928
  E(xc)   -2893.34177 -2892.07866 -2909.61816     0.00042     0.00052    -0.10165
  Local  ************************597831.62130     0.03675    -0.13028     3.50426
  n-local   257.57763   256.30495   238.94010     0.00416     0.00571    -1.20886
  augment  3358.93339  3353.06938  3431.41027    -0.00715    -0.00981     1.32874
  Kinetic  9522.02278  9466.95268  9713.85064    -0.00640    -0.02103     1.97540
  Fock        0.00000     0.00000     0.00000     0.00000     0.00000     0.00000
  vdW       -44.63273   -44.52739   -30.02960    -0.00065     0.00018    -0.00119
  -------------------------------------------------------------------------------------
  Total     -88.90915   -93.48570    -5.46539    -0.00061    -0.00035    -0.04605
  in kB     -52.25315   -54.94285    -3.21208    -0.00036    -0.00021    -0.02706
  external pressure =      -36.80 kB  Pullay stress =        0.00 kB


 VOLUME and BASIS-vectors are now :
 -----------------------------------------------------------------------------
  energy-cutoff  :      450.00
  volume of cell :     2726.12
      direct lattice vectors                 reciprocal lattice vectors
     9.717792020  0.000000000  0.000000000     0.102904034  0.000000000  0.000000000
     0.000000000 11.221139680  0.000000000     0.000000000  0.089117508  0.000000000
     0.000000000  0.000000000 25.000000000     0.000000000  0.000000000  0.040000000

  length of vectors
     9.717792020 11.221139680 25.000000000     0.102904034  0.089117508  0.040000000


 FORCES acting on ions
    electron-ion (+dipol)            ewald-force                    non-local-force                 convergence-correction
 -----------------------------------------------------------------------------------------------
   -.820E-02 0.717E+00 0.256E+04   -.639E-03 -.696E+00 -.256E+04   0.118E-01 -.222E-02 -.125E+01   0.142E-01 -.156E-01 -.159E-01
   -.452E+01 -.235E+01 0.901E+03   0.452E+01 0.240E+01 -.900E+03   0.532E-01 0.604E-01 -.719E+00   0.534E-01 -.230E-01 0.233E-01
   0.393E+00 0.759E+01 -.793E+03   -.310E+00 -.763E+01 0.792E+03   -.141E+00 0.587E-01 0.680E+00   0.551E-01 -.250E-01 0.241E-01
   -.899E+00 0.120E+01 0.256E+04   0.878E+00 -.125E+01 -.256E+04   -.356E-01 0.639E-02 -.127E+01   0.461E-01 -.203E-02 0.636E-02
   -.840E+00 0.505E+01 0.910E+03   0.806E+00 -.500E+01 -.909E+03   -.288E-01 -.454E-01 -.876E+00   0.464E-01 0.507E-03 0.156E-01
   0.727E+01 0.261E+02 -.810E+03   -.687E+01 -.253E+02 0.811E+03   -.425E+00 -.738E+00 -.352E+00   0.202E-01 -.199E-01 -.162E-01
   0.387E+00 0.138E+02 -.250E+04   -.366E+00 -.138E+02 0.250E+04   -.208E-01 0.109E+00 0.126E+01   0.180E-02 -.191E-01 0.211E-01
   0.305E+02 0.415E+02 -.247E+04   -.309E+02 -.417E+02 0.247E+04   0.419E+00 0.231E+00 0.145E+01   0.173E-01 -.214E-01 -.936E-03
   0.391E+00 0.812E+00 0.256E+04   -.332E+00 -.814E+00 -.256E+04   -.163E-01 0.413E-02 -.121E+01   0.140E-01 0.115E-01 -.145E-01
   -.410E+01 0.734E+01 0.910E+03   0.408E+01 -.745E+01 -.909E+03   0.799E-01 0.198E-01 -.622E+00   0.513E-01 0.202E-01 0.182E-01
   0.743E+01 0.115E+02 -.771E+03   -.735E+01 -.116E+02 0.770E+03   -.128E+00 0.668E-01 0.600E+00   0.450E-01 0.178E-01 0.122E-01
   -.827E+00 -.213E-01 0.256E+04   0.712E+00 0.287E-02 -.256E+04   -.255E-02 -.737E-04 -.123E+01   0.480E-01 0.186E-01 0.174E-01
   -.277E+00 -.386E-01 0.915E+03   0.150E+00 0.872E-02 -.914E+03   0.363E-01 -.913E-04 -.906E+00   0.472E-01 0.301E-01 0.226E-01
   0.300E+01 -.490E-01 -.763E+03   -.299E+01 0.210E-01 0.763E+03   -.325E-01 0.999E-04 0.587E+00   0.134E-01 0.280E-01 -.425E-01
   -.133E+01 0.155E+02 -.249E+04   0.125E+01 -.157E+02 0.249E+04   0.889E-01 0.228E+00 0.120E+01   0.578E-02 0.669E-02 0.175E-01
   0.698E+02 -.274E-02 -.240E+04   -.712E+02 -.157E-01 0.240E+04   0.136E+01 -.982E-03 0.193E+01   0.226E-02 0.189E-01 -.121E-01
   0.391E+00 -.843E+00 0.256E+04   -.332E+00 0.818E+00 -.256E+04   -.163E-01 -.429E-02 -.121E+01   0.139E-01 0.151E-01 0.139E-04
   -.411E+01 -.739E+01 0.910E+03   0.409E+01 0.746E+01 -.909E+03   0.801E-01 -.203E-01 -.622E+00   0.501E-01 0.208E-01 0.252E-01
   0.745E+01 -.116E+02 -.771E+03   -.737E+01 0.116E+02 0.770E+03   -.129E+00 -.673E-01 0.600E+00   0.439E-01 0.247E-01 0.479E-02
   -.899E+00 -.120E+01 0.256E+04   0.879E+00 0.125E+01 -.256E+04   -.355E-01 -.648E-02 -.127E+01   0.454E-01 0.203E-02 0.264E-01
   -.837E+00 -.505E+01 0.910E+03   0.804E+00 0.500E+01 -.909E+03   -.289E-01 0.451E-01 -.875E+00   0.452E-01 -.498E-03 0.269E-01
   0.724E+01 -.261E+02 -.811E+03   -.684E+01 0.253E+02 0.811E+03   -.424E+00 0.741E+00 -.354E+00   0.191E-01 0.215E-01 -.284E-01
   -.136E+01 -.156E+02 -.249E+04   0.127E+01 0.158E+02 0.249E+04   0.900E-01 -.228E+00 0.120E+01   0.668E-02 0.202E-01 0.239E-02
   0.305E+02 -.415E+02 -.247E+04   -.309E+02 0.417E+02 0.247E+04   0.419E+00 -.227E+00 0.145E+01   0.150E-01 0.216E-01 -.212E-01
   -.809E-02 -.687E+00 0.256E+04   -.580E-03 0.692E+00 -.256E+04   0.118E-01 0.223E-02 -.125E+01   0.140E-01 -.110E-01 -.116E-02
   -.452E+01 0.241E+01 0.901E+03   0.452E+01 -.242E+01 -.900E+03   0.532E-01 -.609E-01 -.719E+00   0.524E-01 -.180E-01 0.302E-01
   0.393E+00 -.752E+01 -.793E+03   -.308E+00 0.760E+01 0.792E+03   -.141E+00 -.593E-01 0.680E+00   0.537E-01 -.172E-01 0.169E-01
   -.912E+00 0.216E-01 0.256E+04   0.697E+00 -.297E-02 -.256E+04   0.953E-01 0.271E-04 -.121E+01   0.445E-01 -.186E-01 0.150E-01
   -.748E+00 0.415E-01 0.906E+03   0.788E+00 -.115E-01 -.905E+03   -.252E-01 -.170E-03 -.834E+00   0.460E-01 -.301E-01 0.180E-01
   0.300E+01 0.448E-01 -.788E+03   -.306E+01 -.165E-01 0.788E+03   0.323E-01 -.592E-04 0.761E+00   0.261E-01 -.286E-01 0.169E-02
   0.377E+00 -.137E+02 -.250E+04   -.357E+00 0.138E+02 0.250E+04   -.201E-01 -.109E+00 0.126E+01   0.241E-02 -.833E-02 0.623E-02
   0.108E+02 0.427E-01 -.250E+04   -.108E+02 -.239E-01 0.250E+04   0.212E-02 -.703E-03 0.129E+01   0.321E-01 -.189E-01 -.762E-02
   0.116E+00 0.437E+00 0.256E+04   -.155E+00 -.445E+00 -.256E+04   0.283E-01 0.636E-02 -.121E+01   -.130E-01 -.140E-01 0.268E-01
   0.179E+01 0.188E+01 0.906E+03   -.176E+01 -.183E+01 -.906E+03   -.243E-01 -.249E-01 -.788E+00   -.540E-01 -.225E-01 0.233E-01
   -.192E+01 0.877E+01 -.791E+03   0.191E+01 -.871E+01 0.791E+03   0.690E-01 -.346E-01 0.568E+00   -.552E-01 -.313E-01 0.141E-01
   0.801E+00 0.798E+00 0.256E+04   -.707E+00 -.783E+00 -.256E+04   -.801E-02 -.769E-02 -.124E+01   -.472E-01 -.130E-02 -.132E-02
   0.304E+01 0.294E+01 0.904E+03   -.304E+01 -.292E+01 -.904E+03   -.570E-01 0.516E-01 -.587E+00   -.453E-01 -.147E-02 0.260E-01
   -.633E+00 0.970E+01 -.788E+03   0.637E+00 -.970E+01 0.787E+03   0.144E-01 0.517E-02 0.648E+00   -.203E-01 -.296E-02 0.359E-01
   -.114E+01 0.334E+02 -.249E+04   0.112E+01 -.338E+02 0.249E+04   0.323E-01 0.432E+00 0.133E+01   0.178E-02 -.386E-01 -.217E-01
   -.290E+02 0.422E+02 -.247E+04   0.295E+02 -.425E+02 0.247E+04   -.435E+00 0.230E+00 0.145E+01   -.155E-01 -.232E-01 0.296E-02
   -.256E+00 0.953E+00 0.256E+04   0.246E+00 -.982E+00 -.256E+04   0.322E-01 -.121E-02 -.124E+01   -.118E-01 0.148E-01 0.277E-01
   0.497E+01 0.265E+01 0.908E+03   -.501E+01 -.267E+01 -.907E+03   -.574E-01 -.130E-01 -.728E+00   -.525E-01 0.203E-01 0.216E-01
   -.126E+02 0.114E+02 -.783E+03   0.122E+02 -.114E+02 0.783E+03   0.457E+00 -.120E-01 0.161E+00   -.406E-01 0.848E-02 -.143E-01
   0.763E+00 -.215E-01 0.256E+04   -.685E+00 0.323E-02 -.256E+04   -.303E-02 -.994E-04 -.119E+01   -.503E-01 0.185E-01 0.973E-02
   -.267E+01 -.408E-01 0.910E+03   0.271E+01 0.121E-01 -.910E+03   0.367E-02 -.299E-03 -.579E+00   -.453E-01 0.290E-01 0.237E-01
   -.303E+01 -.349E-01 -.771E+03   0.297E+01 0.501E-02 0.770E+03   0.925E-01 -.536E-03 0.826E+00   -.119E-01 0.303E-01 0.203E-01
   0.129E+00 0.134E+03 -.229E+04   -.138E+00 -.135E+03 0.229E+04   0.180E-01 0.855E+00 0.294E+00   -.491E-03 -.138E-01 -.269E-01
   -.707E+02 -.866E-02 -.241E+04   0.723E+02 -.862E-02 0.240E+04   -.158E+01 -.161E-02 0.201E+01   -.117E-02 0.182E-01 -.941E-02
   -.256E+00 -.984E+00 0.256E+04   0.246E+00 0.987E+00 -.256E+04   0.322E-01 0.110E-02 -.124E+01   -.120E-01 0.114E-01 0.417E-01
   0.498E+01 -.270E+01 0.908E+03   -.502E+01 0.269E+01 -.907E+03   -.577E-01 0.127E-01 -.728E+00   -.518E-01 0.223E-01 0.292E-01
   -.126E+02 -.115E+02 -.783E+03   0.122E+02 0.115E+02 0.783E+03   0.457E+00 0.124E-01 0.160E+00   -.387E-01 0.325E-01 -.231E-01
   0.801E+00 -.798E+00 0.256E+04   -.707E+00 0.783E+00 -.256E+04   -.800E-02 0.761E-02 -.124E+01   -.471E-01 0.164E-02 0.192E-01
   0.304E+01 -.293E+01 0.904E+03   -.304E+01 0.291E+01 -.904E+03   -.571E-01 -.519E-01 -.587E+00   -.442E-01 0.189E-02 0.358E-01
   -.638E+00 -.971E+01 -.788E+03   0.641E+00 0.971E+01 0.787E+03   0.165E-01 -.529E-02 0.648E+00   -.193E-01 0.311E-02 0.250E-01
   0.104E+00 -.134E+03 -.229E+04   -.113E+00 0.135E+03 0.229E+04   0.170E-01 -.851E+00 0.292E+00   -.711E-03 0.372E-01 -.410E-01
   -.290E+02 -.423E+02 -.247E+04   0.295E+02 0.425E+02 0.247E+04   -.435E+00 -.230E+00 0.145E+01   -.126E-01 0.236E-01 -.178E-01
   0.116E+00 -.407E+00 0.256E+04   -.155E+00 0.440E+00 -.256E+04   0.284E-01 -.634E-02 -.121E+01   -.130E-01 -.121E-01 0.407E-01
   0.179E+01 -.182E+01 0.906E+03   -.176E+01 0.181E+01 -.905E+03   -.244E-01 0.245E-01 -.788E+00   -.537E-01 -.202E-01 0.313E-01
   -.192E+01 -.867E+01 -.791E+03   0.191E+01 0.865E+01 0.791E+03   0.696E-01 0.312E-01 0.570E+00   -.534E-01 -.956E-02 0.565E-02
   0.594E+00 0.216E-01 0.256E+04   -.578E+00 -.286E-02 -.256E+04   0.180E-01 0.536E-04 -.124E+01   -.455E-01 -.189E-01 0.907E-02
   0.132E+01 0.340E-01 0.905E+03   -.128E+01 -.460E-02 -.905E+03   0.224E-01 0.176E-03 -.812E+00   -.451E-01 -.295E-01 0.377E-01
   -.860E+00 0.357E-01 -.798E+03   0.857E+00 -.554E-02 0.798E+03   0.282E-01 0.351E-03 0.602E+00   -.275E-01 -.306E-01 0.374E-01
   -.115E+01 -.333E+02 -.249E+04   0.113E+01 0.338E+02 0.249E+04   0.321E-01 -.432E+00 0.133E+01   0.188E-02 0.141E-01 -.360E-01
   -.995E+01 0.220E-01 -.250E+04   0.101E+02 -.401E-02 0.250E+04   -.105E+00 0.482E-03 0.133E+01   -.313E-01 -.188E-01 -.534E-02
   0.608E+00 0.216E+03 -.182E+04   -.433E+00 -.248E+03 0.184E+04   -.169E+00 0.321E+02 -.215E+02   -.133E-02 0.190E-02 0.210E-01
   0.715E+00 -.216E+03 -.182E+04   -.560E+00 0.248E+03 0.184E+04   -.149E+00 -.321E+02 -.215E+02   -.145E-02 0.535E-02 0.186E-01
 -----------------------------------------------------------------------------------------------
   0.496E+00 -.106E-01 0.459E+02   0.194E-12 -.284E-13 0.455E-12   -.517E+00 0.601E-02 -.465E+02   0.322E-01 0.689E-02 0.579E+00
 
 
 POSITION                                       TOTAL-FORCE (eV/Angst)
 -----------------------------------------------------------------------------------
      0.00000      0.00000      0.00000         0.016996      0.002850      0.176447
      3.23926      0.00000      2.29051         0.101336      0.092568     -0.088281
      1.63433     -0.00303      4.49054        -0.001888     -0.002529      0.006241
      2.42945      1.40264      0.00000        -0.011303     -0.050771      0.173323
      0.80982      1.40264      2.29051        -0.009840      0.009612     -0.242976
      4.07328      1.43353      4.56065         0.003018     -0.002710      0.004576
      0.00963     -0.01360      6.76145         0.002085     -0.000195      0.014147
      2.40894      1.38802      6.75400        -0.003651      0.000629      0.012500
      0.00000      2.80528      0.00000         0.055982      0.013656      0.102296
      3.23926      2.80528      2.29051         0.109525     -0.070906     -0.157653
      1.62138      2.79502      4.48308        -0.002028     -0.005348      0.005860
      2.42945      4.20793      0.00000        -0.070011      0.000084      0.150450
      0.80982      4.20793      2.29051        -0.043937      0.000107     -0.265584
      4.04746      4.20779      4.50642        -0.004916      0.000097     -0.000583
     -0.00034      2.78064      6.76010         0.008445      0.005079      0.016805
      2.35108      4.20782      6.70405        -0.000515     -0.000539      0.002288
      0.00000      5.61057      0.00000         0.056024     -0.013531      0.102438
      3.23926      5.61057      2.29051         0.109742      0.070773     -0.157245
      1.62145      5.62073      4.48309        -0.002816      0.005223      0.005661
      2.42945      7.01321      0.00000        -0.011380      0.050776      0.173610
      0.80982      7.01321      2.29051        -0.009966     -0.009861     -0.242204
      4.07325      6.98212      4.56072         0.002967      0.005871      0.003100
     -0.00045      5.63491      6.76014         0.009123     -0.005122      0.016370
      2.40886      7.02745      6.75409        -0.003174      0.002712      0.010576
      0.00000      8.41585      0.00000         0.016971     -0.002992      0.176729
      3.23926      8.41585      2.29051         0.101217     -0.093042     -0.088030
      1.63434      8.41879      4.49059        -0.001840      0.001506      0.006096
      2.42945      9.81850      0.00000        -0.075858     -0.000055     -0.056922
      0.80982      9.81850      2.29051         0.059890     -0.000256     -0.246803
      4.05703      9.81842      4.49112        -0.002141     -0.000341      0.006500
      0.00961      8.42928      6.76141         0.002907      0.000143      0.014896
      2.43403      9.81840      6.76694        -0.001055     -0.000832      0.014808
      4.85890      0.00000      0.00000        -0.023884     -0.015437      0.178933
      8.09816      0.00000      2.29051        -0.042814     -0.001617     -0.226461
      6.47979     -0.00125      4.49858         0.003306     -0.002084      0.002642
      7.28834      1.40264      0.00000         0.038956      0.005575      0.154178
      5.66871      1.40264      2.29051        -0.103553      0.070351      0.001552
      8.91415      1.39761      4.49003         0.000742      0.001528      0.008444
      4.86316     -0.02719      6.77223         0.007244     -0.005975      0.011319
      7.31601      1.38246      6.75006         0.009425      0.000468      0.008146
      4.85890      2.80528      0.00000         0.009763     -0.015471      0.170270
      8.09816      2.80528      2.29051        -0.148516     -0.015225     -0.180384
      6.46575      2.80575      4.52793         0.010823     -0.001947     -0.000579
      7.28834      4.20793      0.00000         0.025016      0.000088      0.168363
      5.66871      4.20793      2.29051        -0.002873     -0.000015     -0.017373
      8.92077      4.20790      4.47983         0.006606     -0.000167     -0.001899
      4.86465      2.79551      6.84424         0.007258     -0.002873     -0.015135
      7.37613      4.20786      6.71990         0.009070     -0.000701      0.000326
      4.85890      5.61057      0.00000         0.009701      0.015663      0.170498
      8.09816      5.61057      2.29051        -0.148777      0.015246     -0.180280
      6.46565      5.60991      4.52798         0.010608      0.002125     -0.001021
      7.28834      7.01321      0.00000         0.038915     -0.005599      0.154460
      5.66871      7.01321      2.29051        -0.103585     -0.070623      0.002311
      8.91408      7.01808      4.49005         0.002563     -0.001777      0.008901
      4.86453      5.61983      6.84445         0.005820      0.005754     -0.016071
      7.31590      7.03312      6.75003         0.009189     -0.001125      0.007673
      4.85890      8.41585      0.00000        -0.023982      0.015236      0.179090
      8.09816      8.41585      2.29051        -0.042870      0.001050     -0.226336
      6.47972      8.41713      4.49854         0.003615     -0.001052      0.004029
      7.28834      9.81850      0.00000        -0.010797     -0.000069      0.170954
      5.66871      9.81850      2.29051         0.020581      0.000029     -0.202902
      8.91709      9.81841      4.49190         0.001809     -0.000069      0.015411
      4.86303      8.44264      6.77232         0.006588      0.005578      0.009981
      7.30293      9.81831      6.75689         0.004607     -0.000350      0.017969
      4.86538      3.52107      8.72269         0.004436      0.000893     -0.012803
      4.86508      4.89407      8.72281         0.005098     -0.000061     -0.013647
 -----------------------------------------------------------------------------------
    total drift:                                0.010999      0.002301     -0.037292


--------------------------------------------------------------------------------------------------------



  FREE ENERGIE OF THE ION-ELECTRON SYSTEM (eV)
  ---------------------------------------------------
  free  energy   TOTEN  =      -416.04476783 eV

  energy  without entropy=     -415.34375521  energy(sigma->0) =     -415.69426152
 
 d Force = 0.2382051E-03[ 0.222E-03, 0.255E-03]  d Energy = 0.2386474E-03-0.442E-06
 d Force =-0.1505090E+00[-0.149E+00,-0.152E+00]  d Ewald  =-0.1505083E+00-0.714E-06


--------------------------------------------------------------------------------------------------------


    POTLOK:  cpu time    0.0513: real time    0.0521


--------------------------------------------------------------------------------------------------------


 stress matrix after NEB project (eV)
    -88.90915     -0.00061     -0.04605
     -0.00061    -93.48570     -0.00035
     -0.04605     -0.00035     -5.46539
  FORCES: max atom, RMS     0.019482    0.008685
  FORCE total and by dimension    0.070558    0.017969
  Stress total and by dimension  129.128959   93.485704
 Quasi-Newton relaxation of ions (Broydens 2nd method)
  g(Force)  = 0.961E-04   g(Stress)= 0.000E+00

 retain information from N=  2 steps
 eigenvalues of (default step * inverse Hessian matrix)
  average eigenvalue of G=   4.8147
 eigenvalue spectrum of G is  4.8147  4.8147


--------------------------------------------------------------------------------------------------------


  
 reached required accuracy - stopping structural energy minimisation
     LOOP+:  cpu time   77.0734: real time   77.3454
    4ORBIT:  cpu time    0.0000: real time    0.0000

 total amount of memory used by VASP MPI-rank0    79496. kBytes
=======================================================================

   base      :      30000. kBytes
   nonlr-proj:       5410. kBytes
   fftplans  :       4000. kBytes
   grid      :       6141. kBytes
   one-center:        139. kBytes
   wavefun   :      33806. kBytes
 
  
  
 General timing and accounting informations for this job:
 ========================================================
  
                  Total CPU time used (sec):     2817.184
                            User time (sec):     2357.145
                          System time (sec):      460.039
                         Elapsed time (sec):     2821.708
  
                   Maximum memory used (kb):      960672.
                   Average memory used (kb):           0.
  
                          Minor page faults:       462666
                          Major page faults:            0
                 Voluntary context switches:    134214405
