       N       E                     dE             d eps       ncg     rms          rms(c)
DAV:   1     0.386502718568E+03    0.38650E+03   -0.32428E+04 28104   0.169E+03
DAV:   2    -0.291526838673E+02   -0.41566E+03   -0.40565E+03 34296   0.345E+02
DAV:   3    -0.387135109205E+02   -0.95608E+01   -0.94284E+01 31224   0.530E+01
DAV:   4    -0.388161674904E+02   -0.10266E+00   -0.10247E+00 31656   0.552E+00
DAV:   5    -0.388175416224E+02   -0.13741E-02   -0.13740E-02 32844   0.613E-01    0.303E+01
RMM:   6    -0.367768999064E+02    0.20406E+01   -0.45006E+00 28080   0.120E+01    0.160E+01
RMM:   7    -0.365742859846E+02    0.20261E+00   -0.14909E+00 28080   0.654E+00    0.449E+00
RMM:   8    -0.365403033966E+02    0.33983E-01   -0.14564E-01 28080   0.220E+00    0.174E+00
RMM:   9    -0.365380773810E+02    0.22260E-02   -0.56630E-03 28795   0.355E-01    0.509E-02
RMM:  10    -0.365380959059E+02   -0.18525E-04   -0.16379E-04 28260   0.419E-02    0.323E-02
RMM:  11    -0.365381004971E+02   -0.45912E-05   -0.64123E-06 20814   0.114E-02    0.404E-03
RMM:  12    -0.365381006197E+02   -0.12262E-06   -0.12784E-06 15264   0.601E-03
   1 F= -.36538101E+02 E0= -.36537627E+02  d E =-.365381E+02
       N       E                     dE             d eps       ncg     rms          rms(c)
DAV:   1    -0.365574870482E+02   -0.19387E-01   -0.41284E-01 29148   0.384E+00    0.671E-01
RMM:   2    -0.365470702871E+02    0.10417E-01   -0.19489E-02 28080   0.794E-01    0.274E-01
RMM:   3    -0.365460360935E+02    0.10342E-02   -0.35547E-03 28269   0.294E-01    0.149E-01
RMM:   4    -0.365459975799E+02    0.38514E-04   -0.28161E-04 28552   0.770E-02    0.164E-02
RMM:   5    -0.365459973439E+02    0.23594E-06   -0.34238E-05 28430   0.257E-02    0.670E-03
RMM:   6    -0.365459968414E+02    0.50248E-06   -0.15510E-06 15539   0.644E-03
   2 F= -.36545997E+02 E0= -.36545523E+02  d E =-.789622E-02
       N       E                     dE             d eps       ncg     rms          rms(c)
DAV:   1    -0.366003716348E+02   -0.54374E-01   -0.16941E+00 28356   0.777E+00    0.134E+00
RMM:   2    -0.365570187267E+02    0.43353E-01   -0.81620E-02 28080   0.163E+00    0.553E-01
RMM:   3    -0.365528429447E+02    0.41758E-02   -0.14421E-02 28297   0.588E-01    0.308E-01
RMM:   4    -0.365527061998E+02    0.13674E-03   -0.11410E-03 28547   0.153E-01    0.360E-02
RMM:   5    -0.365527073062E+02   -0.11064E-05   -0.14046E-04 28483   0.501E-02    0.130E-02
RMM:   6    -0.365527048768E+02    0.24294E-05   -0.65475E-06 24951   0.122E-02    0.539E-03
RMM:   7    -0.365527051370E+02   -0.26016E-06   -0.25159E-06 15266   0.923E-03
   3 F= -.36552705E+02 E0= -.36552260E+02  d E =-.670830E-02
       N       E                     dE             d eps       ncg     rms          rms(c)
DAV:   1    -0.365530307881E+02   -0.32591E-03   -0.10620E-02 30876   0.614E-01    0.107E-01
RMM:   2    -0.365527548435E+02    0.27594E-03   -0.51847E-04 28080   0.129E-01    0.430E-02
RMM:   3    -0.365527266650E+02    0.28179E-04   -0.92699E-05 28272   0.471E-02    0.237E-02
RMM:   4    -0.365527239771E+02    0.26879E-05   -0.75689E-06 25609   0.127E-02    0.263E-03
RMM:   5    -0.365527239274E+02    0.49729E-07   -0.90314E-07 14759   0.470E-03
   4 F= -.36552724E+02 E0= -.36552284E+02  d E =-.187904E-04
