 vasp.5.4.4.18Apr17-6-g9f103f2a35 (build Nov 06 2023 00:46:14) complex          
  
 executed on             LinuxIFC date 2025.07.20  17:59:39
 running on   48 total cores
 distrk:  each k-point on   48 cores,    1 groups
 distr:  one band on NCORES_PER_BAND=   8 cores,    6 groups


--------------------------------------------------------------------------------------------------------


 INCAR:
 POTCAR:    PAW_PBE Pt 04Feb2005                  
 POTCAR:    PAW_PBE Pt 04Feb2005                  
  local pseudopotential read in
  partial core-charges read in
  partial kinetic energy density read in
  atomic valenz-charges read in
  non local Contribution for L=           2  read in
    real space projection operators read in
  non local Contribution for L=           2  read in
    real space projection operators read in
  non local Contribution for L=           0  read in
    real space projection operators read in
  non local Contribution for L=           0  read in
    real space projection operators read in
  non local Contribution for L=           1  read in
    real space projection operators read in
  non local Contribution for L=           1  read in
    real space projection operators read in
    PAW grid and wavefunctions read in
 
   number of l-projection  operators is LMAX  =           6
   number of lm-projection operators is LMMAX =          18
 
  PAW_PBE Pt 04Feb2005                  :
 energy of atom  1       EATOM= -729.1176
 kinetic energy error for atom=    0.0021 (will be added to EATOM!!)
 
 
 POSCAR: Pt                                      
  positions in cartesian coordinates
  No initial velocities read in
 exchange correlation table for  LEXCH =        8
   RHO(1)=    0.500       N(1)  =     2000
   RHO(2)=  100.500       N(2)  =     4000

 VTST: version 3.2, (02/03/18)

 CHAIN: initializing optimizer
 
 OPT: Using VASP QUASI-newton optimizer
 CHAIN: Read ICHAIN            0
 
 POSCAR: Pt                                      
  positions in cartesian coordinates
  No initial velocities read in
 


--------------------------------------------------------------------------------------------------------


 ion  position               nearest neighbor table
   1  0.000  0.000  0.000-   4 2.76   4 2.76   4 2.76   4 2.76   2 2.79   3 2.79   5 2.80   6 2.80
                             6 2.80   5 2.80
   2  0.667  0.000  0.333-   5 2.76   5 2.76   5 2.76   5 2.76   1 2.79   3 2.79   4 2.80   4 2.80
                             6 2.80   6 2.80
   3  0.333  0.000  0.667-   6 2.76   6 2.76   6 2.76   6 2.76   1 2.79   2 2.79   4 2.80   4 2.80
                             5 2.80   5 2.80
   4  0.500  0.500  0.000-   1 2.76   1 2.76   1 2.76   1 2.76   6 2.79   5 2.79   2 2.80   3 2.80
                             3 2.80   2 2.80
   5  0.167  0.500  0.333-   2 2.76   2 2.76   2 2.76   2 2.76   4 2.79   6 2.79   1 2.80   1 2.80
                             3 2.80   3 2.80
   6  0.833  0.500  0.667-   3 2.76   3 2.76   3 2.76   3 2.76   4 2.79   5 2.79   1 2.80   1 2.80
                             2 2.80   2 2.80
 
  LATTYP: Found a simple orthorhombic cell.
 ALAT       =     2.8052849200
 B/A-ratio  =     1.6974097910
 C/A-ratio  =     2.4494897402
  
  Lattice vectors:
  
 A1 = (   0.0000000000,  -2.8052849200,   0.0000000000)
 A2 = (  -4.7617180898,   0.0000000000,   0.0000000000)
 A3 = (   0.0000000000,   0.0000000000,  -6.8715166300)


Analysis of symmetry for initial positions (statically):
=====================================================================
 Subroutine PRICEL returns following result:
 
  LATTYP: Found a base centered monoclinic cell.
 ALAT       =    18.0506084036
 B/A-ratio  =     0.1554122087
 C/A-ratio  =     0.6284728449
 COS(beta)  =    -0.9867353346
  
  Lattice vectors:
  
 A1 = (  -8.7298166726,   1.4026424600,   2.2905057953)
 A2 = (  -8.7298166726,  -1.4026424600,   2.2905057953)
 A3 = (  11.1106757651,   0.0000000000,  -2.2905058640)
 
   6 primitive cells build up your supercell.
 

 Routine SETGRP: Setting up the symmetry group for a 
 simple orthorhombic supercell.


 Subroutine GETGRP returns: Found  4 space group operations
 (whereof  4 operations were pure point group operations)
 out of a pool of  8 trial point group operations.


The static configuration has the point symmetry C_2h.


Analysis of symmetry for dynamics (positions and initial velocities):
=====================================================================
 Subroutine PRICEL returns following result:
 
  LATTYP: Found a base centered monoclinic cell.
 ALAT       =    18.0506084036
 B/A-ratio  =     0.1554122087
 C/A-ratio  =     0.6284728449
 COS(beta)  =    -0.9867353346
  
  Lattice vectors:
  
 A1 = (  -8.7298166726,   1.4026424600,   2.2905057953)
 A2 = (  -8.7298166726,  -1.4026424600,   2.2905057953)
 A3 = (  11.1106757651,   0.0000000000,  -2.2905058640)
 
   6 primitive cells build up your supercell.
 

 Routine SETGRP: Setting up the symmetry group for a 
 simple orthorhombic supercell.


 Subroutine GETGRP returns: Found  4 space group operations
 (whereof  4 operations were pure point group operations)
 out of a pool of  8 trial point group operations.


The dynamic configuration has the point symmetry C_2h.


 Subroutine INISYM returns: Found  4 space group operations
 (whereof  4 operations are pure point group operations),
 and found     6 'primitive' translations

 
 
 KPOINTS: K-Spacing Value to Generate K-Mesh: 0.02

Automatic generation of k-mesh.
Space group operators:
 irot       det(A)        alpha          n_x          n_y          n_z        tau_x        tau_y        tau_z
    1     1.000000     0.000000     1.000000     0.000000     0.000000     0.000000     0.000000     0.000000
    2    -1.000000     0.000000     1.000000     0.000000     0.000000     0.000000     0.000000     0.000000
    3     1.000000   180.000000     0.000000     1.000000     0.000000     0.000000     0.000000     0.000000
    4    -1.000000   180.000000     0.000000     1.000000     0.000000     0.000000     0.000000     0.000000
 
 Subroutine IBZKPT returns following result:
 ===========================================
 
 Found    390 irreducible k-points:
 
 Following reciprocal coordinates:
            Coordinates               Weight
  0.000000  0.000000  0.000000      1.000000
  0.090909  0.000000  0.000000      2.000000
  0.181818  0.000000  0.000000      2.000000
  0.272727  0.000000  0.000000      2.000000
  0.363636  0.000000  0.000000      2.000000
  0.454545  0.000000  0.000000      2.000000
  0.000000  0.055556  0.000000      2.000000
  0.090909  0.055556  0.000000      4.000000
  0.181818  0.055556  0.000000      4.000000
  0.272727  0.055556  0.000000      4.000000
  0.363636  0.055556  0.000000      4.000000
  0.454545  0.055556  0.000000      4.000000
  0.000000  0.111111  0.000000      2.000000
  0.090909  0.111111  0.000000      4.000000
  0.181818  0.111111  0.000000      4.000000
  0.272727  0.111111  0.000000      4.000000
  0.363636  0.111111  0.000000      4.000000
  0.454545  0.111111  0.000000      4.000000
  0.000000  0.166667  0.000000      2.000000
  0.090909  0.166667  0.000000      4.000000
  0.181818  0.166667  0.000000      4.000000
  0.272727  0.166667  0.000000      4.000000
  0.363636  0.166667  0.000000      4.000000
  0.454545  0.166667  0.000000      4.000000
  0.000000  0.222222  0.000000      2.000000
  0.090909  0.222222  0.000000      4.000000
  0.181818  0.222222  0.000000      4.000000
  0.272727  0.222222  0.000000      4.000000
  0.363636  0.222222  0.000000      4.000000
  0.454545  0.222222  0.000000      4.000000
  0.000000  0.277778  0.000000      2.000000
  0.090909  0.277778  0.000000      4.000000
  0.181818  0.277778  0.000000      4.000000
  0.272727  0.277778  0.000000      4.000000
  0.363636  0.277778  0.000000      4.000000
  0.454545  0.277778  0.000000      4.000000
  0.000000  0.333333  0.000000      2.000000
  0.090909  0.333333  0.000000      4.000000
  0.181818  0.333333  0.000000      4.000000
  0.272727  0.333333  0.000000      4.000000
  0.363636  0.333333  0.000000      4.000000
  0.454545  0.333333  0.000000      4.000000
  0.000000  0.388889  0.000000      2.000000
  0.090909  0.388889  0.000000      4.000000
  0.181818  0.388889  0.000000      4.000000
  0.272727  0.388889  0.000000      4.000000
  0.363636  0.388889  0.000000      4.000000
  0.454545  0.388889  0.000000      4.000000
  0.000000  0.444444  0.000000      2.000000
  0.090909  0.444444  0.000000      4.000000
  0.181818  0.444444  0.000000      4.000000
  0.272727  0.444444  0.000000      4.000000
  0.363636  0.444444  0.000000      4.000000
  0.454545  0.444444  0.000000      4.000000
  0.000000  0.500000  0.000000      1.000000
  0.090909  0.500000  0.000000      2.000000
  0.181818  0.500000  0.000000      2.000000
  0.272727  0.500000  0.000000      2.000000
  0.363636  0.500000  0.000000      2.000000
  0.454545  0.500000  0.000000      2.000000
  0.000000  0.000000  0.142857      2.000000
  0.090909  0.000000  0.142857      2.000000
  0.181818  0.000000  0.142857      2.000000
  0.272727  0.000000  0.142857      2.000000
  0.363636  0.000000  0.142857      2.000000
  0.454545  0.000000  0.142857      2.000000
 -0.454545  0.000000  0.142857      2.000000
 -0.363636  0.000000  0.142857      2.000000
 -0.272727  0.000000  0.142857      2.000000
 -0.181818  0.000000  0.142857      2.000000
 -0.090909  0.000000  0.142857      2.000000
  0.000000  0.055556  0.142857      4.000000
  0.090909  0.055556  0.142857      4.000000
  0.181818  0.055556  0.142857      4.000000
  0.272727  0.055556  0.142857      4.000000
  0.363636  0.055556  0.142857      4.000000
  0.454545  0.055556  0.142857      4.000000
 -0.454545  0.055556  0.142857      4.000000
 -0.363636  0.055556  0.142857      4.000000
 -0.272727  0.055556  0.142857      4.000000
 -0.181818  0.055556  0.142857      4.000000
 -0.090909  0.055556  0.142857      4.000000
  0.000000  0.111111  0.142857      4.000000
  0.090909  0.111111  0.142857      4.000000
  0.181818  0.111111  0.142857      4.000000
  0.272727  0.111111  0.142857      4.000000
  0.363636  0.111111  0.142857      4.000000
  0.454545  0.111111  0.142857      4.000000
 -0.454545  0.111111  0.142857      4.000000
 -0.363636  0.111111  0.142857      4.000000
 -0.272727  0.111111  0.142857      4.000000
 -0.181818  0.111111  0.142857      4.000000
 -0.090909  0.111111  0.142857      4.000000
  0.000000  0.166667  0.142857      4.000000
  0.090909  0.166667  0.142857      4.000000
  0.181818  0.166667  0.142857      4.000000
  0.272727  0.166667  0.142857      4.000000
  0.363636  0.166667  0.142857      4.000000
  0.454545  0.166667  0.142857      4.000000
 -0.454545  0.166667  0.142857      4.000000
 -0.363636  0.166667  0.142857      4.000000
 -0.272727  0.166667  0.142857      4.000000
 -0.181818  0.166667  0.142857      4.000000
 -0.090909  0.166667  0.142857      4.000000
  0.000000  0.222222  0.142857      4.000000
  0.090909  0.222222  0.142857      4.000000
  0.181818  0.222222  0.142857      4.000000
  0.272727  0.222222  0.142857      4.000000
  0.363636  0.222222  0.142857      4.000000
  0.454545  0.222222  0.142857      4.000000
 -0.454545  0.222222  0.142857      4.000000
 -0.363636  0.222222  0.142857      4.000000
 -0.272727  0.222222  0.142857      4.000000
 -0.181818  0.222222  0.142857      4.000000
 -0.090909  0.222222  0.142857      4.000000
  0.000000  0.277778  0.142857      4.000000
  0.090909  0.277778  0.142857      4.000000
  0.181818  0.277778  0.142857      4.000000
  0.272727  0.277778  0.142857      4.000000
  0.363636  0.277778  0.142857      4.000000
  0.454545  0.277778  0.142857      4.000000
 -0.454545  0.277778  0.142857      4.000000
 -0.363636  0.277778  0.142857      4.000000
 -0.272727  0.277778  0.142857      4.000000
 -0.181818  0.277778  0.142857      4.000000
 -0.090909  0.277778  0.142857      4.000000
  0.000000  0.333333  0.142857      4.000000
  0.090909  0.333333  0.142857      4.000000
  0.181818  0.333333  0.142857      4.000000
  0.272727  0.333333  0.142857      4.000000
  0.363636  0.333333  0.142857      4.000000
  0.454545  0.333333  0.142857      4.000000
 -0.454545  0.333333  0.142857      4.000000
 -0.363636  0.333333  0.142857      4.000000
 -0.272727  0.333333  0.142857      4.000000
 -0.181818  0.333333  0.142857      4.000000
 -0.090909  0.333333  0.142857      4.000000
  0.000000  0.388889  0.142857      4.000000
  0.090909  0.388889  0.142857      4.000000
  0.181818  0.388889  0.142857      4.000000
  0.272727  0.388889  0.142857      4.000000
  0.363636  0.388889  0.142857      4.000000
  0.454545  0.388889  0.142857      4.000000
 -0.454545  0.388889  0.142857      4.000000
 -0.363636  0.388889  0.142857      4.000000
 -0.272727  0.388889  0.142857      4.000000
 -0.181818  0.388889  0.142857      4.000000
 -0.090909  0.388889  0.142857      4.000000
  0.000000  0.444444  0.142857      4.000000
  0.090909  0.444444  0.142857      4.000000
  0.181818  0.444444  0.142857      4.000000
  0.272727  0.444444  0.142857      4.000000
  0.363636  0.444444  0.142857      4.000000
  0.454545  0.444444  0.142857      4.000000
 -0.454545  0.444444  0.142857      4.000000
 -0.363636  0.444444  0.142857      4.000000
 -0.272727  0.444444  0.142857      4.000000
 -0.181818  0.444444  0.142857      4.000000
 -0.090909  0.444444  0.142857      4.000000
  0.000000  0.500000  0.142857      2.000000
  0.090909  0.500000  0.142857      2.000000
  0.181818  0.500000  0.142857      2.000000
  0.272727  0.500000  0.142857      2.000000
  0.363636  0.500000  0.142857      2.000000
  0.454545  0.500000  0.142857      2.000000
 -0.454545  0.500000  0.142857      2.000000
 -0.363636  0.500000  0.142857      2.000000
 -0.272727  0.500000  0.142857      2.000000
 -0.181818  0.500000  0.142857      2.000000
 -0.090909  0.500000  0.142857      2.000000
  0.000000  0.000000  0.285714      2.000000
  0.090909  0.000000  0.285714      2.000000
  0.181818  0.000000  0.285714      2.000000
  0.272727  0.000000  0.285714      2.000000
  0.363636  0.000000  0.285714      2.000000
  0.454545  0.000000  0.285714      2.000000
 -0.454545  0.000000  0.285714      2.000000
 -0.363636  0.000000  0.285714      2.000000
 -0.272727  0.000000  0.285714      2.000000
 -0.181818  0.000000  0.285714      2.000000
 -0.090909  0.000000  0.285714      2.000000
  0.000000  0.055556  0.285714      4.000000
  0.090909  0.055556  0.285714      4.000000
  0.181818  0.055556  0.285714      4.000000
  0.272727  0.055556  0.285714      4.000000
  0.363636  0.055556  0.285714      4.000000
  0.454545  0.055556  0.285714      4.000000
 -0.454545  0.055556  0.285714      4.000000
 -0.363636  0.055556  0.285714      4.000000
 -0.272727  0.055556  0.285714      4.000000
 -0.181818  0.055556  0.285714      4.000000
 -0.090909  0.055556  0.285714      4.000000
  0.000000  0.111111  0.285714      4.000000
  0.090909  0.111111  0.285714      4.000000
  0.181818  0.111111  0.285714      4.000000
  0.272727  0.111111  0.285714      4.000000
  0.363636  0.111111  0.285714      4.000000
  0.454545  0.111111  0.285714      4.000000
 -0.454545  0.111111  0.285714      4.000000
 -0.363636  0.111111  0.285714      4.000000
 -0.272727  0.111111  0.285714      4.000000
 -0.181818  0.111111  0.285714      4.000000
 -0.090909  0.111111  0.285714      4.000000
  0.000000  0.166667  0.285714      4.000000
  0.090909  0.166667  0.285714      4.000000
  0.181818  0.166667  0.285714      4.000000
  0.272727  0.166667  0.285714      4.000000
  0.363636  0.166667  0.285714      4.000000
  0.454545  0.166667  0.285714      4.000000
 -0.454545  0.166667  0.285714      4.000000
 -0.363636  0.166667  0.285714      4.000000
 -0.272727  0.166667  0.285714      4.000000
 -0.181818  0.166667  0.285714      4.000000
 -0.090909  0.166667  0.285714      4.000000
  0.000000  0.222222  0.285714      4.000000
  0.090909  0.222222  0.285714      4.000000
  0.181818  0.222222  0.285714      4.000000
  0.272727  0.222222  0.285714      4.000000
  0.363636  0.222222  0.285714      4.000000
  0.454545  0.222222  0.285714      4.000000
 -0.454545  0.222222  0.285714      4.000000
 -0.363636  0.222222  0.285714      4.000000
 -0.272727  0.222222  0.285714      4.000000
 -0.181818  0.222222  0.285714      4.000000
 -0.090909  0.222222  0.285714      4.000000
  0.000000  0.277778  0.285714      4.000000
  0.090909  0.277778  0.285714      4.000000
  0.181818  0.277778  0.285714      4.000000
  0.272727  0.277778  0.285714      4.000000
  0.363636  0.277778  0.285714      4.000000
  0.454545  0.277778  0.285714      4.000000
 -0.454545  0.277778  0.285714      4.000000
 -0.363636  0.277778  0.285714      4.000000
 -0.272727  0.277778  0.285714      4.000000
 -0.181818  0.277778  0.285714      4.000000
 -0.090909  0.277778  0.285714      4.000000
  0.000000  0.333333  0.285714      4.000000
  0.090909  0.333333  0.285714      4.000000
  0.181818  0.333333  0.285714      4.000000
  0.272727  0.333333  0.285714      4.000000
  0.363636  0.333333  0.285714      4.000000
  0.454545  0.333333  0.285714      4.000000
 -0.454545  0.333333  0.285714      4.000000
 -0.363636  0.333333  0.285714      4.000000
 -0.272727  0.333333  0.285714      4.000000
 -0.181818  0.333333  0.285714      4.000000
 -0.090909  0.333333  0.285714      4.000000
  0.000000  0.388889  0.285714      4.000000
  0.090909  0.388889  0.285714      4.000000
  0.181818  0.388889  0.285714      4.000000
  0.272727  0.388889  0.285714      4.000000
  0.363636  0.388889  0.285714      4.000000
  0.454545  0.388889  0.285714      4.000000
 -0.454545  0.388889  0.285714      4.000000
 -0.363636  0.388889  0.285714      4.000000
 -0.272727  0.388889  0.285714      4.000000
 -0.181818  0.388889  0.285714      4.000000
 -0.090909  0.388889  0.285714      4.000000
  0.000000  0.444444  0.285714      4.000000
  0.090909  0.444444  0.285714      4.000000
  0.181818  0.444444  0.285714      4.000000
  0.272727  0.444444  0.285714      4.000000
  0.363636  0.444444  0.285714      4.000000
  0.454545  0.444444  0.285714      4.000000
 -0.454545  0.444444  0.285714      4.000000
 -0.363636  0.444444  0.285714      4.000000
 -0.272727  0.444444  0.285714      4.000000
 -0.181818  0.444444  0.285714      4.000000
 -0.090909  0.444444  0.285714      4.000000
  0.000000  0.500000  0.285714      2.000000
  0.090909  0.500000  0.285714      2.000000
  0.181818  0.500000  0.285714      2.000000
  0.272727  0.500000  0.285714      2.000000
  0.363636  0.500000  0.285714      2.000000
  0.454545  0.500000  0.285714      2.000000
 -0.454545  0.500000  0.285714      2.000000
 -0.363636  0.500000  0.285714      2.000000
 -0.272727  0.500000  0.285714      2.000000
 -0.181818  0.500000  0.285714      2.000000
 -0.090909  0.500000  0.285714      2.000000
  0.000000  0.000000  0.428571      2.000000
  0.090909  0.000000  0.428571      2.000000
  0.181818  0.000000  0.428571      2.000000
  0.272727  0.000000  0.428571      2.000000
  0.363636  0.000000  0.428571      2.000000
  0.454545  0.000000  0.428571      2.000000
 -0.454545  0.000000  0.428571      2.000000
 -0.363636  0.000000  0.428571      2.000000
 -0.272727  0.000000  0.428571      2.000000
 -0.181818  0.000000  0.428571      2.000000
 -0.090909  0.000000  0.428571      2.000000
  0.000000  0.055556  0.428571      4.000000
  0.090909  0.055556  0.428571      4.000000
  0.181818  0.055556  0.428571      4.000000
  0.272727  0.055556  0.428571      4.000000
  0.363636  0.055556  0.428571      4.000000
  0.454545  0.055556  0.428571      4.000000
 -0.454545  0.055556  0.428571      4.000000
 -0.363636  0.055556  0.428571      4.000000
 -0.272727  0.055556  0.428571      4.000000
 -0.181818  0.055556  0.428571      4.000000
 -0.090909  0.055556  0.428571      4.000000
  0.000000  0.111111  0.428571      4.000000
  0.090909  0.111111  0.428571      4.000000
  0.181818  0.111111  0.428571      4.000000
  0.272727  0.111111  0.428571      4.000000
  0.363636  0.111111  0.428571      4.000000
  0.454545  0.111111  0.428571      4.000000
 -0.454545  0.111111  0.428571      4.000000
 -0.363636  0.111111  0.428571      4.000000
 -0.272727  0.111111  0.428571      4.000000
 -0.181818  0.111111  0.428571      4.000000
 -0.090909  0.111111  0.428571      4.000000
  0.000000  0.166667  0.428571      4.000000
  0.090909  0.166667  0.428571      4.000000
  0.181818  0.166667  0.428571      4.000000
  0.272727  0.166667  0.428571      4.000000
  0.363636  0.166667  0.428571      4.000000
  0.454545  0.166667  0.428571      4.000000
 -0.454545  0.166667  0.428571      4.000000
 -0.363636  0.166667  0.428571      4.000000
 -0.272727  0.166667  0.428571      4.000000
 -0.181818  0.166667  0.428571      4.000000
 -0.090909  0.166667  0.428571      4.000000
  0.000000  0.222222  0.428571      4.000000
  0.090909  0.222222  0.428571      4.000000
  0.181818  0.222222  0.428571      4.000000
  0.272727  0.222222  0.428571      4.000000
  0.363636  0.222222  0.428571      4.000000
  0.454545  0.222222  0.428571      4.000000
 -0.454545  0.222222  0.428571      4.000000
 -0.363636  0.222222  0.428571      4.000000
 -0.272727  0.222222  0.428571      4.000000
 -0.181818  0.222222  0.428571      4.000000
 -0.090909  0.222222  0.428571      4.000000
  0.000000  0.277778  0.428571      4.000000
  0.090909  0.277778  0.428571      4.000000
  0.181818  0.277778  0.428571      4.000000
  0.272727  0.277778  0.428571      4.000000
  0.363636  0.277778  0.428571      4.000000
  0.454545  0.277778  0.428571      4.000000
 -0.454545  0.277778  0.428571      4.000000
 -0.363636  0.277778  0.428571      4.000000
 -0.272727  0.277778  0.428571      4.000000
 -0.181818  0.277778  0.428571      4.000000
 -0.090909  0.277778  0.428571      4.000000
  0.000000  0.333333  0.428571      4.000000
  0.090909  0.333333  0.428571      4.000000
  0.181818  0.333333  0.428571      4.000000
  0.272727  0.333333  0.428571      4.000000
  0.363636  0.333333  0.428571      4.000000
  0.454545  0.333333  0.428571      4.000000
 -0.454545  0.333333  0.428571      4.000000
 -0.363636  0.333333  0.428571      4.000000
 -0.272727  0.333333  0.428571      4.000000
 -0.181818  0.333333  0.428571      4.000000
 -0.090909  0.333333  0.428571      4.000000
  0.000000  0.388889  0.428571      4.000000
  0.090909  0.388889  0.428571      4.000000
  0.181818  0.388889  0.428571      4.000000
  0.272727  0.388889  0.428571      4.000000
  0.363636  0.388889  0.428571      4.000000
  0.454545  0.388889  0.428571      4.000000
 -0.454545  0.388889  0.428571      4.000000
 -0.363636  0.388889  0.428571      4.000000
 -0.272727  0.388889  0.428571      4.000000
 -0.181818  0.388889  0.428571      4.000000
 -0.090909  0.388889  0.428571      4.000000
  0.000000  0.444444  0.428571      4.000000
  0.090909  0.444444  0.428571      4.000000
  0.181818  0.444444  0.428571      4.000000
  0.272727  0.444444  0.428571      4.000000
  0.363636  0.444444  0.428571      4.000000
  0.454545  0.444444  0.428571      4.000000
 -0.454545  0.444444  0.428571      4.000000
 -0.363636  0.444444  0.428571      4.000000
 -0.272727  0.444444  0.428571      4.000000
 -0.181818  0.444444  0.428571      4.000000
 -0.090909  0.444444  0.428571      4.000000
  0.000000  0.500000  0.428571      2.000000
  0.090909  0.500000  0.428571      2.000000
  0.181818  0.500000  0.428571      2.000000
  0.272727  0.500000  0.428571      2.000000
  0.363636  0.500000  0.428571      2.000000
  0.454545  0.500000  0.428571      2.000000
 -0.454545  0.500000  0.428571      2.000000
 -0.363636  0.500000  0.428571      2.000000
 -0.272727  0.500000  0.428571      2.000000
 -0.181818  0.500000  0.428571      2.000000
 -0.090909  0.500000  0.428571      2.000000
 
 Following cartesian coordinates:
            Coordinates               Weight
  0.000000  0.000000  0.000000      1.000000
  0.019092  0.000000  0.000000      2.000000
  0.038183  0.000000  0.000000      2.000000
  0.057275  0.000000  0.000000      2.000000
  0.076367  0.000000  0.000000      2.000000
  0.095458  0.000000  0.000000      2.000000
  0.000000  0.019804  0.000000      2.000000
  0.019092  0.019804  0.000000      4.000000
  0.038183  0.019804  0.000000      4.000000
  0.057275  0.019804  0.000000      4.000000
  0.076367  0.019804  0.000000      4.000000
  0.095458  0.019804  0.000000      4.000000
  0.000000  0.039608  0.000000      2.000000
  0.019092  0.039608  0.000000      4.000000
  0.038183  0.039608  0.000000      4.000000
  0.057275  0.039608  0.000000      4.000000
  0.076367  0.039608  0.000000      4.000000
  0.095458  0.039608  0.000000      4.000000
  0.000000  0.059412  0.000000      2.000000
  0.019092  0.059412  0.000000      4.000000
  0.038183  0.059412  0.000000      4.000000
  0.057275  0.059412  0.000000      4.000000
  0.076367  0.059412  0.000000      4.000000
  0.095458  0.059412  0.000000      4.000000
  0.000000  0.079216  0.000000      2.000000
  0.019092  0.079216  0.000000      4.000000
  0.038183  0.079216  0.000000      4.000000
  0.057275  0.079216  0.000000      4.000000
  0.076367  0.079216  0.000000      4.000000
  0.095458  0.079216  0.000000      4.000000
  0.000000  0.099019  0.000000      2.000000
  0.019092  0.099019  0.000000      4.000000
  0.038183  0.099019  0.000000      4.000000
  0.057275  0.099019  0.000000      4.000000
  0.076367  0.099019  0.000000      4.000000
  0.095458  0.099019  0.000000      4.000000
  0.000000  0.118823  0.000000      2.000000
  0.019092  0.118823  0.000000      4.000000
  0.038183  0.118823  0.000000      4.000000
  0.057275  0.118823  0.000000      4.000000
  0.076367  0.118823  0.000000      4.000000
  0.095458  0.118823  0.000000      4.000000
  0.000000  0.138627  0.000000      2.000000
  0.019092  0.138627  0.000000      4.000000
  0.038183  0.138627  0.000000      4.000000
  0.057275  0.138627  0.000000      4.000000
  0.076367  0.138627  0.000000      4.000000
  0.095458  0.138627  0.000000      4.000000
  0.000000  0.158431  0.000000      2.000000
  0.019092  0.158431  0.000000      4.000000
  0.038183  0.158431  0.000000      4.000000
  0.057275  0.158431  0.000000      4.000000
  0.076367  0.158431  0.000000      4.000000
  0.095458  0.158431  0.000000      4.000000
  0.000000  0.178235  0.000000      1.000000
  0.019092  0.178235  0.000000      2.000000
  0.038183  0.178235  0.000000      2.000000
  0.057275  0.178235  0.000000      2.000000
  0.076367  0.178235  0.000000      2.000000
  0.095458  0.178235  0.000000      2.000000
  0.000000  0.000000  0.020790      2.000000
  0.019092  0.000000  0.020790      2.000000
  0.038183  0.000000  0.020790      2.000000
  0.057275  0.000000  0.020790      2.000000
  0.076367  0.000000  0.020790      2.000000
  0.095458  0.000000  0.020790      2.000000
 -0.095458  0.000000  0.020790      2.000000
 -0.076367  0.000000  0.020790      2.000000
 -0.057275  0.000000  0.020790      2.000000
 -0.038183  0.000000  0.020790      2.000000
 -0.019092  0.000000  0.020790      2.000000
  0.000000  0.019804  0.020790      4.000000
  0.019092  0.019804  0.020790      4.000000
  0.038183  0.019804  0.020790      4.000000
  0.057275  0.019804  0.020790      4.000000
  0.076367  0.019804  0.020790      4.000000
  0.095458  0.019804  0.020790      4.000000
 -0.095458  0.019804  0.020790      4.000000
 -0.076367  0.019804  0.020790      4.000000
 -0.057275  0.019804  0.020790      4.000000
 -0.038183  0.019804  0.020790      4.000000
 -0.019092  0.019804  0.020790      4.000000
  0.000000  0.039608  0.020790      4.000000
  0.019092  0.039608  0.020790      4.000000
  0.038183  0.039608  0.020790      4.000000
  0.057275  0.039608  0.020790      4.000000
  0.076367  0.039608  0.020790      4.000000
  0.095458  0.039608  0.020790      4.000000
 -0.095458  0.039608  0.020790      4.000000
 -0.076367  0.039608  0.020790      4.000000
 -0.057275  0.039608  0.020790      4.000000
 -0.038183  0.039608  0.020790      4.000000
 -0.019092  0.039608  0.020790      4.000000
  0.000000  0.059412  0.020790      4.000000
  0.019092  0.059412  0.020790      4.000000
  0.038183  0.059412  0.020790      4.000000
  0.057275  0.059412  0.020790      4.000000
  0.076367  0.059412  0.020790      4.000000
  0.095458  0.059412  0.020790      4.000000
 -0.095458  0.059412  0.020790      4.000000
 -0.076367  0.059412  0.020790      4.000000
 -0.057275  0.059412  0.020790      4.000000
 -0.038183  0.059412  0.020790      4.000000
 -0.019092  0.059412  0.020790      4.000000
  0.000000  0.079216  0.020790      4.000000
  0.019092  0.079216  0.020790      4.000000
  0.038183  0.079216  0.020790      4.000000
  0.057275  0.079216  0.020790      4.000000
  0.076367  0.079216  0.020790      4.000000
  0.095458  0.079216  0.020790      4.000000
 -0.095458  0.079216  0.020790      4.000000
 -0.076367  0.079216  0.020790      4.000000
 -0.057275  0.079216  0.020790      4.000000
 -0.038183  0.079216  0.020790      4.000000
 -0.019092  0.079216  0.020790      4.000000
  0.000000  0.099019  0.020790      4.000000
  0.019092  0.099019  0.020790      4.000000
  0.038183  0.099019  0.020790      4.000000
  0.057275  0.099019  0.020790      4.000000
  0.076367  0.099019  0.020790      4.000000
  0.095458  0.099019  0.020790      4.000000
 -0.095458  0.099019  0.020790      4.000000
 -0.076367  0.099019  0.020790      4.000000
 -0.057275  0.099019  0.020790      4.000000
 -0.038183  0.099019  0.020790      4.000000
 -0.019092  0.099019  0.020790      4.000000
  0.000000  0.118823  0.020790      4.000000
  0.019092  0.118823  0.020790      4.000000
  0.038183  0.118823  0.020790      4.000000
  0.057275  0.118823  0.020790      4.000000
  0.076367  0.118823  0.020790      4.000000
  0.095458  0.118823  0.020790      4.000000
 -0.095458  0.118823  0.020790      4.000000
 -0.076367  0.118823  0.020790      4.000000
 -0.057275  0.118823  0.020790      4.000000
 -0.038183  0.118823  0.020790      4.000000
 -0.019092  0.118823  0.020790      4.000000
  0.000000  0.138627  0.020790      4.000000
  0.019092  0.138627  0.020790      4.000000
  0.038183  0.138627  0.020790      4.000000
  0.057275  0.138627  0.020790      4.000000
  0.076367  0.138627  0.020790      4.000000
  0.095458  0.138627  0.020790      4.000000
 -0.095458  0.138627  0.020790      4.000000
 -0.076367  0.138627  0.020790      4.000000
 -0.057275  0.138627  0.020790      4.000000
 -0.038183  0.138627  0.020790      4.000000
 -0.019092  0.138627  0.020790      4.000000
  0.000000  0.158431  0.020790      4.000000
  0.019092  0.158431  0.020790      4.000000
  0.038183  0.158431  0.020790      4.000000
  0.057275  0.158431  0.020790      4.000000
  0.076367  0.158431  0.020790      4.000000
  0.095458  0.158431  0.020790      4.000000
 -0.095458  0.158431  0.020790      4.000000
 -0.076367  0.158431  0.020790      4.000000
 -0.057275  0.158431  0.020790      4.000000
 -0.038183  0.158431  0.020790      4.000000
 -0.019092  0.158431  0.020790      4.000000
  0.000000  0.178235  0.020790      2.000000
  0.019092  0.178235  0.020790      2.000000
  0.038183  0.178235  0.020790      2.000000
  0.057275  0.178235  0.020790      2.000000
  0.076367  0.178235  0.020790      2.000000
  0.095458  0.178235  0.020790      2.000000
 -0.095458  0.178235  0.020790      2.000000
 -0.076367  0.178235  0.020790      2.000000
 -0.057275  0.178235  0.020790      2.000000
 -0.038183  0.178235  0.020790      2.000000
 -0.019092  0.178235  0.020790      2.000000
  0.000000  0.000000  0.041580      2.000000
  0.019092  0.000000  0.041580      2.000000
  0.038183  0.000000  0.041580      2.000000
  0.057275  0.000000  0.041580      2.000000
  0.076367  0.000000  0.041580      2.000000
  0.095458  0.000000  0.041580      2.000000
 -0.095458  0.000000  0.041580      2.000000
 -0.076367  0.000000  0.041580      2.000000
 -0.057275  0.000000  0.041580      2.000000
 -0.038183  0.000000  0.041580      2.000000
 -0.019092  0.000000  0.041580      2.000000
  0.000000  0.019804  0.041580      4.000000
  0.019092  0.019804  0.041580      4.000000
  0.038183  0.019804  0.041580      4.000000
  0.057275  0.019804  0.041580      4.000000
  0.076367  0.019804  0.041580      4.000000
  0.095458  0.019804  0.041580      4.000000
 -0.095458  0.019804  0.041580      4.000000
 -0.076367  0.019804  0.041580      4.000000
 -0.057275  0.019804  0.041580      4.000000
 -0.038183  0.019804  0.041580      4.000000
 -0.019092  0.019804  0.041580      4.000000
  0.000000  0.039608  0.041580      4.000000
  0.019092  0.039608  0.041580      4.000000
  0.038183  0.039608  0.041580      4.000000
  0.057275  0.039608  0.041580      4.000000
  0.076367  0.039608  0.041580      4.000000
  0.095458  0.039608  0.041580      4.000000
 -0.095458  0.039608  0.041580      4.000000
 -0.076367  0.039608  0.041580      4.000000
 -0.057275  0.039608  0.041580      4.000000
 -0.038183  0.039608  0.041580      4.000000
 -0.019092  0.039608  0.041580      4.000000
  0.000000  0.059412  0.041580      4.000000
  0.019092  0.059412  0.041580      4.000000
  0.038183  0.059412  0.041580      4.000000
  0.057275  0.059412  0.041580      4.000000
  0.076367  0.059412  0.041580      4.000000
  0.095458  0.059412  0.041580      4.000000
 -0.095458  0.059412  0.041580      4.000000
 -0.076367  0.059412  0.041580      4.000000
 -0.057275  0.059412  0.041580      4.000000
 -0.038183  0.059412  0.041580      4.000000
 -0.019092  0.059412  0.041580      4.000000
  0.000000  0.079216  0.041580      4.000000
  0.019092  0.079216  0.041580      4.000000
  0.038183  0.079216  0.041580      4.000000
  0.057275  0.079216  0.041580      4.000000
  0.076367  0.079216  0.041580      4.000000
  0.095458  0.079216  0.041580      4.000000
 -0.095458  0.079216  0.041580      4.000000
 -0.076367  0.079216  0.041580      4.000000
 -0.057275  0.079216  0.041580      4.000000
 -0.038183  0.079216  0.041580      4.000000
 -0.019092  0.079216  0.041580      4.000000
  0.000000  0.099019  0.041580      4.000000
  0.019092  0.099019  0.041580      4.000000
  0.038183  0.099019  0.041580      4.000000
  0.057275  0.099019  0.041580      4.000000
  0.076367  0.099019  0.041580      4.000000
  0.095458  0.099019  0.041580      4.000000
 -0.095458  0.099019  0.041580      4.000000
 -0.076367  0.099019  0.041580      4.000000
 -0.057275  0.099019  0.041580      4.000000
 -0.038183  0.099019  0.041580      4.000000
 -0.019092  0.099019  0.041580      4.000000
  0.000000  0.118823  0.041580      4.000000
  0.019092  0.118823  0.041580      4.000000
  0.038183  0.118823  0.041580      4.000000
  0.057275  0.118823  0.041580      4.000000
  0.076367  0.118823  0.041580      4.000000
  0.095458  0.118823  0.041580      4.000000
 -0.095458  0.118823  0.041580      4.000000
 -0.076367  0.118823  0.041580      4.000000
 -0.057275  0.118823  0.041580      4.000000
 -0.038183  0.118823  0.041580      4.000000
 -0.019092  0.118823  0.041580      4.000000
  0.000000  0.138627  0.041580      4.000000
  0.019092  0.138627  0.041580      4.000000
  0.038183  0.138627  0.041580      4.000000
  0.057275  0.138627  0.041580      4.000000
  0.076367  0.138627  0.041580      4.000000
  0.095458  0.138627  0.041580      4.000000
 -0.095458  0.138627  0.041580      4.000000
 -0.076367  0.138627  0.041580      4.000000
 -0.057275  0.138627  0.041580      4.000000
 -0.038183  0.138627  0.041580      4.000000
 -0.019092  0.138627  0.041580      4.000000
  0.000000  0.158431  0.041580      4.000000
  0.019092  0.158431  0.041580      4.000000
  0.038183  0.158431  0.041580      4.000000
  0.057275  0.158431  0.041580      4.000000
  0.076367  0.158431  0.041580      4.000000
  0.095458  0.158431  0.041580      4.000000
 -0.095458  0.158431  0.041580      4.000000
 -0.076367  0.158431  0.041580      4.000000
 -0.057275  0.158431  0.041580      4.000000
 -0.038183  0.158431  0.041580      4.000000
 -0.019092  0.158431  0.041580      4.000000
  0.000000  0.178235  0.041580      2.000000
  0.019092  0.178235  0.041580      2.000000
  0.038183  0.178235  0.041580      2.000000
  0.057275  0.178235  0.041580      2.000000
  0.076367  0.178235  0.041580      2.000000
  0.095458  0.178235  0.041580      2.000000
 -0.095458  0.178235  0.041580      2.000000
 -0.076367  0.178235  0.041580      2.000000
 -0.057275  0.178235  0.041580      2.000000
 -0.038183  0.178235  0.041580      2.000000
 -0.019092  0.178235  0.041580      2.000000
  0.000000  0.000000  0.062369      2.000000
  0.019092  0.000000  0.062369      2.000000
  0.038183  0.000000  0.062369      2.000000
  0.057275  0.000000  0.062369      2.000000
  0.076367  0.000000  0.062369      2.000000
  0.095458  0.000000  0.062369      2.000000
 -0.095458  0.000000  0.062369      2.000000
 -0.076367  0.000000  0.062369      2.000000
 -0.057275  0.000000  0.062369      2.000000
 -0.038183  0.000000  0.062369      2.000000
 -0.019092  0.000000  0.062369      2.000000
  0.000000  0.019804  0.062369      4.000000
  0.019092  0.019804  0.062369      4.000000
  0.038183  0.019804  0.062369      4.000000
  0.057275  0.019804  0.062369      4.000000
  0.076367  0.019804  0.062369      4.000000
  0.095458  0.019804  0.062369      4.000000
 -0.095458  0.019804  0.062369      4.000000
 -0.076367  0.019804  0.062369      4.000000
 -0.057275  0.019804  0.062369      4.000000
 -0.038183  0.019804  0.062369      4.000000
 -0.019092  0.019804  0.062369      4.000000
  0.000000  0.039608  0.062369      4.000000
  0.019092  0.039608  0.062369      4.000000
  0.038183  0.039608  0.062369      4.000000
  0.057275  0.039608  0.062369      4.000000
  0.076367  0.039608  0.062369      4.000000
  0.095458  0.039608  0.062369      4.000000
 -0.095458  0.039608  0.062369      4.000000
 -0.076367  0.039608  0.062369      4.000000
 -0.057275  0.039608  0.062369      4.000000
 -0.038183  0.039608  0.062369      4.000000
 -0.019092  0.039608  0.062369      4.000000
  0.000000  0.059412  0.062369      4.000000
  0.019092  0.059412  0.062369      4.000000
  0.038183  0.059412  0.062369      4.000000
  0.057275  0.059412  0.062369      4.000000
  0.076367  0.059412  0.062369      4.000000
  0.095458  0.059412  0.062369      4.000000
 -0.095458  0.059412  0.062369      4.000000
 -0.076367  0.059412  0.062369      4.000000
 -0.057275  0.059412  0.062369      4.000000
 -0.038183  0.059412  0.062369      4.000000
 -0.019092  0.059412  0.062369      4.000000
  0.000000  0.079216  0.062369      4.000000
  0.019092  0.079216  0.062369      4.000000
  0.038183  0.079216  0.062369      4.000000
  0.057275  0.079216  0.062369      4.000000
  0.076367  0.079216  0.062369      4.000000
  0.095458  0.079216  0.062369      4.000000
 -0.095458  0.079216  0.062369      4.000000
 -0.076367  0.079216  0.062369      4.000000
 -0.057275  0.079216  0.062369      4.000000
 -0.038183  0.079216  0.062369      4.000000
 -0.019092  0.079216  0.062369      4.000000
  0.000000  0.099019  0.062369      4.000000
  0.019092  0.099019  0.062369      4.000000
  0.038183  0.099019  0.062369      4.000000
  0.057275  0.099019  0.062369      4.000000
  0.076367  0.099019  0.062369      4.000000
  0.095458  0.099019  0.062369      4.000000
 -0.095458  0.099019  0.062369      4.000000
 -0.076367  0.099019  0.062369      4.000000
 -0.057275  0.099019  0.062369      4.000000
 -0.038183  0.099019  0.062369      4.000000
 -0.019092  0.099019  0.062369      4.000000
  0.000000  0.118823  0.062369      4.000000
  0.019092  0.118823  0.062369      4.000000
  0.038183  0.118823  0.062369      4.000000
  0.057275  0.118823  0.062369      4.000000
  0.076367  0.118823  0.062369      4.000000
  0.095458  0.118823  0.062369      4.000000
 -0.095458  0.118823  0.062369      4.000000
 -0.076367  0.118823  0.062369      4.000000
 -0.057275  0.118823  0.062369      4.000000
 -0.038183  0.118823  0.062369      4.000000
 -0.019092  0.118823  0.062369      4.000000
  0.000000  0.138627  0.062369      4.000000
  0.019092  0.138627  0.062369      4.000000
  0.038183  0.138627  0.062369      4.000000
  0.057275  0.138627  0.062369      4.000000
  0.076367  0.138627  0.062369      4.000000
  0.095458  0.138627  0.062369      4.000000
 -0.095458  0.138627  0.062369      4.000000
 -0.076367  0.138627  0.062369      4.000000
 -0.057275  0.138627  0.062369      4.000000
 -0.038183  0.138627  0.062369      4.000000
 -0.019092  0.138627  0.062369      4.000000
  0.000000  0.158431  0.062369      4.000000
  0.019092  0.158431  0.062369      4.000000
  0.038183  0.158431  0.062369      4.000000
  0.057275  0.158431  0.062369      4.000000
  0.076367  0.158431  0.062369      4.000000
  0.095458  0.158431  0.062369      4.000000
 -0.095458  0.158431  0.062369      4.000000
 -0.076367  0.158431  0.062369      4.000000
 -0.057275  0.158431  0.062369      4.000000
 -0.038183  0.158431  0.062369      4.000000
 -0.019092  0.158431  0.062369      4.000000
  0.000000  0.178235  0.062369      2.000000
  0.019092  0.178235  0.062369      2.000000
  0.038183  0.178235  0.062369      2.000000
  0.057275  0.178235  0.062369      2.000000
  0.076367  0.178235  0.062369      2.000000
  0.095458  0.178235  0.062369      2.000000
 -0.095458  0.178235  0.062369      2.000000
 -0.076367  0.178235  0.062369      2.000000
 -0.057275  0.178235  0.062369      2.000000
 -0.038183  0.178235  0.062369      2.000000
 -0.019092  0.178235  0.062369      2.000000
 


--------------------------------------------------------------------------------------------------------




 Dimension of arrays:
   k-points           NKPTS =    390   k-points in BZ     NKDIM =    390   number of bands    NBANDS=     36
   number of dos      NEDOS =    301   number of ions     NIONS =      6
   non local maximal  LDIM  =      6   non local SUM 2l+1 LMDIM =     18
   total plane-waves  NPLWV =  46656
   max r-space proj   IRMAX =      1   max aug-charges    IRDMAX=   4633
   dimension x,y,z NGX =    36 NGY =   24 NGZ =   54
   dimension x,y,z NGXF=    40 NGYF=   24 NGZF=   56
   support grid    NGXF=    40 NGYF=   24 NGZF=   56
   ions per type =               6
   NGX,Y,Z   is equivalent  to a cutoff of  12.57, 14.22, 13.06 a.u.
   NGXF,Y,Z  is equivalent  to a cutoff of  13.97, 14.22, 13.55 a.u.

 SYSTEM =  unknown system                          
 POSCAR =  Pt                                      

 Startparameter for this run:
   NWRITE =      0    write-flag & timer
   PREC   = h         normal or accurate (medium, high low for compatibility)
   ISTART =      0    job   : 0-new  1-cont  2-samecut
   ICHARG =      2    charge: 1-file 2-atom 10-const
   ISPIN  =      1    spin polarized calculation?
   LNONCOLLINEAR =      F non collinear calculations
   LSORBIT =      F    spin-orbit coupling
   INIWAV =      1    electr: 0-lowe 1-rand  2-diag
   LASPH  =      F    aspherical Exc in radial PAW
   METAGGA=      F    non-selfconsistent MetaGGA calc.

 Electronic Relaxation 1
   ENCUT  =  550.0 eV  40.42 Ry    6.36 a.u.   9.11  5.36 13.14*2*pi/ulx,y,z
   ENINI  =  550.0     initial cutoff
   ENAUG  =  359.0 eV  augmentation charge cutoff
   NELM   =     60;   NELMIN=  2; NELMDL= -5     # of ELM steps 
   EDIFF  = 0.1E-05   stopping-criterion for ELM
   LREAL  =      F    real-space projection
   NLSPLINE    = F    spline interpolate recip. space projectors
   LCOMPAT=      F    compatible to vasp.4.4
   GGA_COMPAT  = T    GGA compatible to vasp.4.4-vasp.4.6
   LMAXPAW     = -100 max onsite density
   LMAXMIX     =    2 max onsite mixed and CHGCAR
   VOSKOWN=      0    Vosko Wilk Nusair interpolation
   ROPT   =    0.00000
 Ionic relaxation
   EDIFFG = -.1E-01   stopping-criterion for IOM
   NSW    =    200    number of steps for IOM
   NBLOCK =      1;   KBLOCK =    200    inner block; outer block 
   IBRION =      1    ionic relax: 0-MD 1-quasi-New 2-CG
   NFREE  =      0    steps in history (QN), initial steepest desc. (CG)
   ISIF   =      3    stress and relaxation
   IWAVPR =     11    prediction:  0-non 1-charg 2-wave 3-comb
   ISYM   =      2    0-nonsym 1-usesym 2-fastsym
   LCORR  =      T    Harris-Foulkes like correction to forces

   POTIM  = 0.1000    time-step for ionic-motion
   TEIN   =    0.0    initial temperature
   TEBEG  =    0.0;   TEEND  =   0.0 temperature during run
   SMASS  =  -3.00    Nose mass-parameter (am)
   estimated Nose-frequenzy (Omega)   =  0.10E-29 period in steps =****** mass=  -0.518E-27a.u.
   SCALEE = 1.0000    scale energy and forces
   NPACO  =    256;   APACO  = 16.0  distance and # of slots for P.C.
   PSTRESS=    0.0 pullay stress

  Mass of Ions in am
   POMASS = 195.08
  Ionic Valenz
   ZVAL   =  10.00
  Atomic Wigner-Seitz radii
   RWIGS  =  -1.00
  virtual crystal weights 
   VCA    =   1.00
   NELECT =      60.0000    total number of electrons
   NUPDOWN=      -1.0000    fix difference up-down

 DOS related values:
   EMIN   =  10.00;   EMAX   =-10.00  energy-range for DOS
   EFERMI =   0.00
   ISMEAR =     1;   SIGMA  =   0.10  broadening in eV -4-tet -1-fermi 0-gaus

 Electronic relaxation 2 (details)
   IALGO  =     68    algorithm
   LDIAG  =      T    sub-space diagonalisation (order eigenvalues)
   LSUBROT=      F    optimize rotation matrix (better conditioning)
   TURBO    =      0    0=normal 1=particle mesh
   IRESTART =      0    0=no restart 2=restart with 2 vectors
   NREBOOT  =      0    no. of reboots
   NMIN     =      0    reboot dimension
   EREF     =   0.00    reference energy to select bands
   IMIX   =      4    mixing-type and parameters
     AMIX     =   0.40;   BMIX     =  1.00
     AMIX_MAG =   1.60;   BMIX_MAG =  1.00
     AMIN     =   0.10
     WC   =   100.;   INIMIX=   1;  MIXPRE=   1;  MAXMIX= -45

 Intra band minimization:
   WEIMIN = 0.0010     energy-eigenvalue tresh-hold
   EBREAK =  0.69E-08  absolut break condition
   DEPER  =   0.30     relativ break condition  

   TIME   =   0.40     timestep for ELM

  volume/ion in A,a.u.               =      15.30       103.24
  Fermi-wavevector in a.u.,A,eV,Ry     =   1.420782  2.684889 27.465019  2.018622
  Thomas-Fermi vector in A             =   2.541661
 
 Write flags
   LWAVE        =      F    write WAVECAR
   LDOWNSAMPLE  =      F    k-point downsampling of WAVECAR
   LCHARG       =      F    write CHGCAR
   LVTOT        =      F    write LOCPOT, total local potential
   LVHAR        =      F    write LOCPOT, Hartree potential only
   LELF         =      F    write electronic localiz. function (ELF)
   LORBIT       =      0    0 simple, 1 ext, 2 COOP (PROOUT), +10 PAW based schemes


 Dipole corrections
   LMONO  =      F    monopole corrections only (constant potential shift)
   LDIPOL =      F    correct potential (dipole corrections)
   IDIPOL =      0    1-x, 2-y, 3-z, 4-all directions 
   EPSILON=  1.0000000 bulk dielectric constant

 Exchange correlation treatment:
   GGA     =    --    GGA type
   LEXCH   =     8    internal setting for exchange type
   VOSKOWN=      0    Vosko Wilk Nusair interpolation
   LHFCALC =     F    Hartree Fock is set to
   LHFONE  =     F    Hartree Fock one center treatment
   AEXX    =    0.0000 exact exchange contribution

 Linear response parameters
   LEPSILON=     F    determine dielectric tensor
   LRPA    =     F    only Hartree local field effects (RPA)
   LNABLA  =     F    use nabla operator in PAW spheres
   LVEL    =     F    velocity operator in full k-point grid
   LINTERFAST=   F  fast interpolation
   KINTER  =     0    interpolate to denser k-point grid
   CSHIFT  =0.1000    complex shift for real part using Kramers Kronig
   OMEGAMAX=  -1.0    maximum frequency
   DEG_THRESHOLD= 0.2000000E-02 threshold for treating states as degnerate
   RTIME   =   -0.100 relaxation time in fs
  (WPLASMAI=    0.000 imaginary part of plasma frequency in eV, 0.658/RTIME)
   DFIELD  = 0.0000000 0.0000000 0.0000000 field for delta impulse in time
 
 Orbital magnetization related:
   ORBITALMAG=     F  switch on orbital magnetization
   LCHIMAG   =     F  perturbation theory with respect to B field
   DQ        =  0.001000  dq finite difference perturbation B field
   LLRAUG    =     F  two centre corrections for induced B field



--------------------------------------------------------------------------------------------------------


 quasi-Newton-method for relaxation of ions
 charge density and potential will be updated during run
 non-spin polarized calculation
 RMM-DIIS sequential band-by-band and
  variant of blocked Davidson during initial phase
 perform sub-space diagonalisation
    before iterative eigenvector-optimisation
 modified Broyden-mixing scheme, WC =      100.0
 initial mixing is a Kerker type mixing with AMIX =  0.4000 and BMIX =      1.0000
 Hartree-type preconditioning will be used
 using additional bands            6
 reciprocal scheme for non local part
 use partial core corrections
 calculate Harris-corrections to forces 
   (improved forces if not selfconsistent)
 use gradient corrections 
 use of overlap-Matrix (Vanderbilt PP)
 Methfessel and Paxton  Order N= 1 SIGMA  =   0.10


--------------------------------------------------------------------------------------------------------


  energy-cutoff  :      550.00
  volume of cell :       91.79
      direct lattice vectors                 reciprocal lattice vectors
     4.761718090  0.000000000  0.000000000     0.210008233  0.000000000  0.000000000
     0.000000000  2.805284920  0.000000000     0.000000000  0.356470030  0.000000000
     0.000000000  0.000000000  6.871516630     0.000000000  0.000000000  0.145528281

  length of vectors
     4.761718090  2.805284920  6.871516630     0.210008233  0.356470030  0.145528281


 
 k-points in units of 2pi/SCALE and weight: K-Spacing Value to Generate K-Mesh: 0.02
   0.00000000  0.00000000  0.00000000       0.001
   0.01909166  0.00000000  0.00000000       0.001
   0.03818332  0.00000000  0.00000000       0.001
   0.05727497  0.00000000  0.00000000       0.001
   0.07636663  0.00000000  0.00000000       0.001
   0.09545829  0.00000000  0.00000000       0.001
   0.00000000  0.01980389  0.00000000       0.001
   0.01909166  0.01980389  0.00000000       0.003
   0.03818332  0.01980389  0.00000000       0.003
   0.05727497  0.01980389  0.00000000       0.003
   0.07636663  0.01980389  0.00000000       0.003
   0.09545829  0.01980389  0.00000000       0.003
   0.00000000  0.03960778  0.00000000       0.001
   0.01909166  0.03960778  0.00000000       0.003
   0.03818332  0.03960778  0.00000000       0.003
   0.05727497  0.03960778  0.00000000       0.003
   0.07636663  0.03960778  0.00000000       0.003
   0.09545829  0.03960778  0.00000000       0.003
   0.00000000  0.05941167  0.00000000       0.001
   0.01909166  0.05941167  0.00000000       0.003
   0.03818332  0.05941167  0.00000000       0.003
   0.05727497  0.05941167  0.00000000       0.003
   0.07636663  0.05941167  0.00000000       0.003
   0.09545829  0.05941167  0.00000000       0.003
   0.00000000  0.07921556  0.00000000       0.001
   0.01909166  0.07921556  0.00000000       0.003
   0.03818332  0.07921556  0.00000000       0.003
   0.05727497  0.07921556  0.00000000       0.003
   0.07636663  0.07921556  0.00000000       0.003
   0.09545829  0.07921556  0.00000000       0.003
   0.00000000  0.09901945  0.00000000       0.001
   0.01909166  0.09901945  0.00000000       0.003
   0.03818332  0.09901945  0.00000000       0.003
   0.05727497  0.09901945  0.00000000       0.003
   0.07636663  0.09901945  0.00000000       0.003
   0.09545829  0.09901945  0.00000000       0.003
   0.00000000  0.11882334  0.00000000       0.001
   0.01909166  0.11882334  0.00000000       0.003
   0.03818332  0.11882334  0.00000000       0.003
   0.05727497  0.11882334  0.00000000       0.003
   0.07636663  0.11882334  0.00000000       0.003
   0.09545829  0.11882334  0.00000000       0.003
   0.00000000  0.13862723  0.00000000       0.001
   0.01909166  0.13862723  0.00000000       0.003
   0.03818332  0.13862723  0.00000000       0.003
   0.05727497  0.13862723  0.00000000       0.003
   0.07636663  0.13862723  0.00000000       0.003
   0.09545829  0.13862723  0.00000000       0.003
   0.00000000  0.15843112  0.00000000       0.001
   0.01909166  0.15843112  0.00000000       0.003
   0.03818332  0.15843112  0.00000000       0.003
   0.05727497  0.15843112  0.00000000       0.003
   0.07636663  0.15843112  0.00000000       0.003
   0.09545829  0.15843112  0.00000000       0.003
   0.00000000  0.17823502  0.00000000       0.001
   0.01909166  0.17823502  0.00000000       0.001
   0.03818332  0.17823502  0.00000000       0.001
   0.05727497  0.17823502  0.00000000       0.001
   0.07636663  0.17823502  0.00000000       0.001
   0.09545829  0.17823502  0.00000000       0.001
   0.00000000  0.00000000  0.02078975       0.001
   0.01909166  0.00000000  0.02078975       0.001
   0.03818332  0.00000000  0.02078975       0.001
   0.05727497  0.00000000  0.02078975       0.001
   0.07636663  0.00000000  0.02078975       0.001
   0.09545829  0.00000000  0.02078975       0.001
  -0.09545829  0.00000000  0.02078975       0.001
  -0.07636663  0.00000000  0.02078975       0.001
  -0.05727497  0.00000000  0.02078975       0.001
  -0.03818332  0.00000000  0.02078975       0.001
  -0.01909166  0.00000000  0.02078975       0.001
   0.00000000  0.01980389  0.02078975       0.003
   0.01909166  0.01980389  0.02078975       0.003
   0.03818332  0.01980389  0.02078975       0.003
   0.05727497  0.01980389  0.02078975       0.003
   0.07636663  0.01980389  0.02078975       0.003
   0.09545829  0.01980389  0.02078975       0.003
  -0.09545829  0.01980389  0.02078975       0.003
  -0.07636663  0.01980389  0.02078975       0.003
  -0.05727497  0.01980389  0.02078975       0.003
  -0.03818332  0.01980389  0.02078975       0.003
  -0.01909166  0.01980389  0.02078975       0.003
   0.00000000  0.03960778  0.02078975       0.003
   0.01909166  0.03960778  0.02078975       0.003
   0.03818332  0.03960778  0.02078975       0.003
   0.05727497  0.03960778  0.02078975       0.003
   0.07636663  0.03960778  0.02078975       0.003
   0.09545829  0.03960778  0.02078975       0.003
  -0.09545829  0.03960778  0.02078975       0.003
  -0.07636663  0.03960778  0.02078975       0.003
  -0.05727497  0.03960778  0.02078975       0.003
  -0.03818332  0.03960778  0.02078975       0.003
  -0.01909166  0.03960778  0.02078975       0.003
   0.00000000  0.05941167  0.02078975       0.003
   0.01909166  0.05941167  0.02078975       0.003
   0.03818332  0.05941167  0.02078975       0.003
   0.05727497  0.05941167  0.02078975       0.003
   0.07636663  0.05941167  0.02078975       0.003
   0.09545829  0.05941167  0.02078975       0.003
  -0.09545829  0.05941167  0.02078975       0.003
  -0.07636663  0.05941167  0.02078975       0.003
  -0.05727497  0.05941167  0.02078975       0.003
  -0.03818332  0.05941167  0.02078975       0.003
  -0.01909166  0.05941167  0.02078975       0.003
   0.00000000  0.07921556  0.02078975       0.003
   0.01909166  0.07921556  0.02078975       0.003
   0.03818332  0.07921556  0.02078975       0.003
   0.05727497  0.07921556  0.02078975       0.003
   0.07636663  0.07921556  0.02078975       0.003
   0.09545829  0.07921556  0.02078975       0.003
  -0.09545829  0.07921556  0.02078975       0.003
  -0.07636663  0.07921556  0.02078975       0.003
  -0.05727497  0.07921556  0.02078975       0.003
  -0.03818332  0.07921556  0.02078975       0.003
  -0.01909166  0.07921556  0.02078975       0.003
   0.00000000  0.09901945  0.02078975       0.003
   0.01909166  0.09901945  0.02078975       0.003
   0.03818332  0.09901945  0.02078975       0.003
   0.05727497  0.09901945  0.02078975       0.003
   0.07636663  0.09901945  0.02078975       0.003
   0.09545829  0.09901945  0.02078975       0.003
  -0.09545829  0.09901945  0.02078975       0.003
  -0.07636663  0.09901945  0.02078975       0.003
  -0.05727497  0.09901945  0.02078975       0.003
  -0.03818332  0.09901945  0.02078975       0.003
  -0.01909166  0.09901945  0.02078975       0.003
   0.00000000  0.11882334  0.02078975       0.003
   0.01909166  0.11882334  0.02078975       0.003
   0.03818332  0.11882334  0.02078975       0.003
   0.05727497  0.11882334  0.02078975       0.003
   0.07636663  0.11882334  0.02078975       0.003
   0.09545829  0.11882334  0.02078975       0.003
  -0.09545829  0.11882334  0.02078975       0.003
  -0.07636663  0.11882334  0.02078975       0.003
  -0.05727497  0.11882334  0.02078975       0.003
  -0.03818332  0.11882334  0.02078975       0.003
  -0.01909166  0.11882334  0.02078975       0.003
   0.00000000  0.13862723  0.02078975       0.003
   0.01909166  0.13862723  0.02078975       0.003
   0.03818332  0.13862723  0.02078975       0.003
   0.05727497  0.13862723  0.02078975       0.003
   0.07636663  0.13862723  0.02078975       0.003
   0.09545829  0.13862723  0.02078975       0.003
  -0.09545829  0.13862723  0.02078975       0.003
  -0.07636663  0.13862723  0.02078975       0.003
  -0.05727497  0.13862723  0.02078975       0.003
  -0.03818332  0.13862723  0.02078975       0.003
  -0.01909166  0.13862723  0.02078975       0.003
   0.00000000  0.15843112  0.02078975       0.003
   0.01909166  0.15843112  0.02078975       0.003
   0.03818332  0.15843112  0.02078975       0.003
   0.05727497  0.15843112  0.02078975       0.003
   0.07636663  0.15843112  0.02078975       0.003
   0.09545829  0.15843112  0.02078975       0.003
  -0.09545829  0.15843112  0.02078975       0.003
  -0.07636663  0.15843112  0.02078975       0.003
  -0.05727497  0.15843112  0.02078975       0.003
  -0.03818332  0.15843112  0.02078975       0.003
  -0.01909166  0.15843112  0.02078975       0.003
   0.00000000  0.17823502  0.02078975       0.001
   0.01909166  0.17823502  0.02078975       0.001
   0.03818332  0.17823502  0.02078975       0.001
   0.05727497  0.17823502  0.02078975       0.001
   0.07636663  0.17823502  0.02078975       0.001
   0.09545829  0.17823502  0.02078975       0.001
  -0.09545829  0.17823502  0.02078975       0.001
  -0.07636663  0.17823502  0.02078975       0.001
  -0.05727497  0.17823502  0.02078975       0.001
  -0.03818332  0.17823502  0.02078975       0.001
  -0.01909166  0.17823502  0.02078975       0.001
   0.00000000  0.00000000  0.04157951       0.001
   0.01909166  0.00000000  0.04157951       0.001
   0.03818332  0.00000000  0.04157951       0.001
   0.05727497  0.00000000  0.04157951       0.001
   0.07636663  0.00000000  0.04157951       0.001
   0.09545829  0.00000000  0.04157951       0.001
  -0.09545829  0.00000000  0.04157951       0.001
  -0.07636663  0.00000000  0.04157951       0.001
  -0.05727497  0.00000000  0.04157951       0.001
  -0.03818332  0.00000000  0.04157951       0.001
  -0.01909166  0.00000000  0.04157951       0.001
   0.00000000  0.01980389  0.04157951       0.003
   0.01909166  0.01980389  0.04157951       0.003
   0.03818332  0.01980389  0.04157951       0.003
   0.05727497  0.01980389  0.04157951       0.003
   0.07636663  0.01980389  0.04157951       0.003
   0.09545829  0.01980389  0.04157951       0.003
  -0.09545829  0.01980389  0.04157951       0.003
  -0.07636663  0.01980389  0.04157951       0.003
  -0.05727497  0.01980389  0.04157951       0.003
  -0.03818332  0.01980389  0.04157951       0.003
  -0.01909166  0.01980389  0.04157951       0.003
   0.00000000  0.03960778  0.04157951       0.003
   0.01909166  0.03960778  0.04157951       0.003
   0.03818332  0.03960778  0.04157951       0.003
   0.05727497  0.03960778  0.04157951       0.003
   0.07636663  0.03960778  0.04157951       0.003
   0.09545829  0.03960778  0.04157951       0.003
  -0.09545829  0.03960778  0.04157951       0.003
  -0.07636663  0.03960778  0.04157951       0.003
  -0.05727497  0.03960778  0.04157951       0.003
  -0.03818332  0.03960778  0.04157951       0.003
  -0.01909166  0.03960778  0.04157951       0.003
   0.00000000  0.05941167  0.04157951       0.003
   0.01909166  0.05941167  0.04157951       0.003
   0.03818332  0.05941167  0.04157951       0.003
   0.05727497  0.05941167  0.04157951       0.003
   0.07636663  0.05941167  0.04157951       0.003
   0.09545829  0.05941167  0.04157951       0.003
  -0.09545829  0.05941167  0.04157951       0.003
  -0.07636663  0.05941167  0.04157951       0.003
  -0.05727497  0.05941167  0.04157951       0.003
  -0.03818332  0.05941167  0.04157951       0.003
  -0.01909166  0.05941167  0.04157951       0.003
   0.00000000  0.07921556  0.04157951       0.003
   0.01909166  0.07921556  0.04157951       0.003
   0.03818332  0.07921556  0.04157951       0.003
   0.05727497  0.07921556  0.04157951       0.003
   0.07636663  0.07921556  0.04157951       0.003
   0.09545829  0.07921556  0.04157951       0.003
  -0.09545829  0.07921556  0.04157951       0.003
  -0.07636663  0.07921556  0.04157951       0.003
  -0.05727497  0.07921556  0.04157951       0.003
  -0.03818332  0.07921556  0.04157951       0.003
  -0.01909166  0.07921556  0.04157951       0.003
   0.00000000  0.09901945  0.04157951       0.003
   0.01909166  0.09901945  0.04157951       0.003
   0.03818332  0.09901945  0.04157951       0.003
   0.05727497  0.09901945  0.04157951       0.003
   0.07636663  0.09901945  0.04157951       0.003
   0.09545829  0.09901945  0.04157951       0.003
  -0.09545829  0.09901945  0.04157951       0.003
  -0.07636663  0.09901945  0.04157951       0.003
  -0.05727497  0.09901945  0.04157951       0.003
  -0.03818332  0.09901945  0.04157951       0.003
  -0.01909166  0.09901945  0.04157951       0.003
   0.00000000  0.11882334  0.04157951       0.003
   0.01909166  0.11882334  0.04157951       0.003
   0.03818332  0.11882334  0.04157951       0.003
   0.05727497  0.11882334  0.04157951       0.003
   0.07636663  0.11882334  0.04157951       0.003
   0.09545829  0.11882334  0.04157951       0.003
  -0.09545829  0.11882334  0.04157951       0.003
  -0.07636663  0.11882334  0.04157951       0.003
  -0.05727497  0.11882334  0.04157951       0.003
  -0.03818332  0.11882334  0.04157951       0.003
  -0.01909166  0.11882334  0.04157951       0.003
   0.00000000  0.13862723  0.04157951       0.003
   0.01909166  0.13862723  0.04157951       0.003
   0.03818332  0.13862723  0.04157951       0.003
   0.05727497  0.13862723  0.04157951       0.003
   0.07636663  0.13862723  0.04157951       0.003
   0.09545829  0.13862723  0.04157951       0.003
  -0.09545829  0.13862723  0.04157951       0.003
  -0.07636663  0.13862723  0.04157951       0.003
  -0.05727497  0.13862723  0.04157951       0.003
  -0.03818332  0.13862723  0.04157951       0.003
  -0.01909166  0.13862723  0.04157951       0.003
   0.00000000  0.15843112  0.04157951       0.003
   0.01909166  0.15843112  0.04157951       0.003
   0.03818332  0.15843112  0.04157951       0.003
   0.05727497  0.15843112  0.04157951       0.003
   0.07636663  0.15843112  0.04157951       0.003
   0.09545829  0.15843112  0.04157951       0.003
  -0.09545829  0.15843112  0.04157951       0.003
  -0.07636663  0.15843112  0.04157951       0.003
  -0.05727497  0.15843112  0.04157951       0.003
  -0.03818332  0.15843112  0.04157951       0.003
  -0.01909166  0.15843112  0.04157951       0.003
   0.00000000  0.17823502  0.04157951       0.001
   0.01909166  0.17823502  0.04157951       0.001
   0.03818332  0.17823502  0.04157951       0.001
   0.05727497  0.17823502  0.04157951       0.001
   0.07636663  0.17823502  0.04157951       0.001
   0.09545829  0.17823502  0.04157951       0.001
  -0.09545829  0.17823502  0.04157951       0.001
  -0.07636663  0.17823502  0.04157951       0.001
  -0.05727497  0.17823502  0.04157951       0.001
  -0.03818332  0.17823502  0.04157951       0.001
  -0.01909166  0.17823502  0.04157951       0.001
   0.00000000  0.00000000  0.06236926       0.001
   0.01909166  0.00000000  0.06236926       0.001
   0.03818332  0.00000000  0.06236926       0.001
   0.05727497  0.00000000  0.06236926       0.001
   0.07636663  0.00000000  0.06236926       0.001
   0.09545829  0.00000000  0.06236926       0.001
  -0.09545829  0.00000000  0.06236926       0.001
  -0.07636663  0.00000000  0.06236926       0.001
  -0.05727497  0.00000000  0.06236926       0.001
  -0.03818332  0.00000000  0.06236926       0.001
  -0.01909166  0.00000000  0.06236926       0.001
   0.00000000  0.01980389  0.06236926       0.003
   0.01909166  0.01980389  0.06236926       0.003
   0.03818332  0.01980389  0.06236926       0.003
   0.05727497  0.01980389  0.06236926       0.003
   0.07636663  0.01980389  0.06236926       0.003
   0.09545829  0.01980389  0.06236926       0.003
  -0.09545829  0.01980389  0.06236926       0.003
  -0.07636663  0.01980389  0.06236926       0.003
  -0.05727497  0.01980389  0.06236926       0.003
  -0.03818332  0.01980389  0.06236926       0.003
  -0.01909166  0.01980389  0.06236926       0.003
   0.00000000  0.03960778  0.06236926       0.003
   0.01909166  0.03960778  0.06236926       0.003
   0.03818332  0.03960778  0.06236926       0.003
   0.05727497  0.03960778  0.06236926       0.003
   0.07636663  0.03960778  0.06236926       0.003
   0.09545829  0.03960778  0.06236926       0.003
  -0.09545829  0.03960778  0.06236926       0.003
  -0.07636663  0.03960778  0.06236926       0.003
  -0.05727497  0.03960778  0.06236926       0.003
  -0.03818332  0.03960778  0.06236926       0.003
  -0.01909166  0.03960778  0.06236926       0.003
   0.00000000  0.05941167  0.06236926       0.003
   0.01909166  0.05941167  0.06236926       0.003
   0.03818332  0.05941167  0.06236926       0.003
   0.05727497  0.05941167  0.06236926       0.003
   0.07636663  0.05941167  0.06236926       0.003
   0.09545829  0.05941167  0.06236926       0.003
  -0.09545829  0.05941167  0.06236926       0.003
  -0.07636663  0.05941167  0.06236926       0.003
  -0.05727497  0.05941167  0.06236926       0.003
  -0.03818332  0.05941167  0.06236926       0.003
  -0.01909166  0.05941167  0.06236926       0.003
   0.00000000  0.07921556  0.06236926       0.003
   0.01909166  0.07921556  0.06236926       0.003
   0.03818332  0.07921556  0.06236926       0.003
   0.05727497  0.07921556  0.06236926       0.003
   0.07636663  0.07921556  0.06236926       0.003
   0.09545829  0.07921556  0.06236926       0.003
  -0.09545829  0.07921556  0.06236926       0.003
  -0.07636663  0.07921556  0.06236926       0.003
  -0.05727497  0.07921556  0.06236926       0.003
  -0.03818332  0.07921556  0.06236926       0.003
  -0.01909166  0.07921556  0.06236926       0.003
   0.00000000  0.09901945  0.06236926       0.003
   0.01909166  0.09901945  0.06236926       0.003
   0.03818332  0.09901945  0.06236926       0.003
   0.05727497  0.09901945  0.06236926       0.003
   0.07636663  0.09901945  0.06236926       0.003
   0.09545829  0.09901945  0.06236926       0.003
  -0.09545829  0.09901945  0.06236926       0.003
  -0.07636663  0.09901945  0.06236926       0.003
  -0.05727497  0.09901945  0.06236926       0.003
  -0.03818332  0.09901945  0.06236926       0.003
  -0.01909166  0.09901945  0.06236926       0.003
   0.00000000  0.11882334  0.06236926       0.003
   0.01909166  0.11882334  0.06236926       0.003
   0.03818332  0.11882334  0.06236926       0.003
   0.05727497  0.11882334  0.06236926       0.003
   0.07636663  0.11882334  0.06236926       0.003
   0.09545829  0.11882334  0.06236926       0.003
  -0.09545829  0.11882334  0.06236926       0.003
  -0.07636663  0.11882334  0.06236926       0.003
  -0.05727497  0.11882334  0.06236926       0.003
  -0.03818332  0.11882334  0.06236926       0.003
  -0.01909166  0.11882334  0.06236926       0.003
   0.00000000  0.13862723  0.06236926       0.003
   0.01909166  0.13862723  0.06236926       0.003
   0.03818332  0.13862723  0.06236926       0.003
   0.05727497  0.13862723  0.06236926       0.003
   0.07636663  0.13862723  0.06236926       0.003
   0.09545829  0.13862723  0.06236926       0.003
  -0.09545829  0.13862723  0.06236926       0.003
  -0.07636663  0.13862723  0.06236926       0.003
  -0.05727497  0.13862723  0.06236926       0.003
  -0.03818332  0.13862723  0.06236926       0.003
  -0.01909166  0.13862723  0.06236926       0.003
   0.00000000  0.15843112  0.06236926       0.003
   0.01909166  0.15843112  0.06236926       0.003
   0.03818332  0.15843112  0.06236926       0.003
   0.05727497  0.15843112  0.06236926       0.003
   0.07636663  0.15843112  0.06236926       0.003
   0.09545829  0.15843112  0.06236926       0.003
  -0.09545829  0.15843112  0.06236926       0.003
  -0.07636663  0.15843112  0.06236926       0.003
  -0.05727497  0.15843112  0.06236926       0.003
  -0.03818332  0.15843112  0.06236926       0.003
  -0.01909166  0.15843112  0.06236926       0.003
   0.00000000  0.17823502  0.06236926       0.001
   0.01909166  0.17823502  0.06236926       0.001
   0.03818332  0.17823502  0.06236926       0.001
   0.05727497  0.17823502  0.06236926       0.001
   0.07636663  0.17823502  0.06236926       0.001
   0.09545829  0.17823502  0.06236926       0.001
  -0.09545829  0.17823502  0.06236926       0.001
  -0.07636663  0.17823502  0.06236926       0.001
  -0.05727497  0.17823502  0.06236926       0.001
  -0.03818332  0.17823502  0.06236926       0.001
  -0.01909166  0.17823502  0.06236926       0.001
 
 k-points in reciprocal lattice and weights: K-Spacing Value to Generate K-Mesh: 0.02
   0.00000000  0.00000000  0.00000000       0.001
   0.09090909  0.00000000  0.00000000       0.001
   0.18181818  0.00000000  0.00000000       0.001
   0.27272727  0.00000000  0.00000000       0.001
   0.36363636  0.00000000  0.00000000       0.001
   0.45454545  0.00000000  0.00000000       0.001
   0.00000000  0.05555556  0.00000000       0.001
   0.09090909  0.05555556  0.00000000       0.003
   0.18181818  0.05555556  0.00000000       0.003
   0.27272727  0.05555556  0.00000000       0.003
   0.36363636  0.05555556  0.00000000       0.003
   0.45454545  0.05555556  0.00000000       0.003
   0.00000000  0.11111111  0.00000000       0.001
   0.09090909  0.11111111  0.00000000       0.003
   0.18181818  0.11111111  0.00000000       0.003
   0.27272727  0.11111111  0.00000000       0.003
   0.36363636  0.11111111  0.00000000       0.003
   0.45454545  0.11111111  0.00000000       0.003
   0.00000000  0.16666667  0.00000000       0.001
   0.09090909  0.16666667  0.00000000       0.003
   0.18181818  0.16666667  0.00000000       0.003
   0.27272727  0.16666667  0.00000000       0.003
   0.36363636  0.16666667  0.00000000       0.003
   0.45454545  0.16666667  0.00000000       0.003
   0.00000000  0.22222222  0.00000000       0.001
   0.09090909  0.22222222  0.00000000       0.003
   0.18181818  0.22222222  0.00000000       0.003
   0.27272727  0.22222222  0.00000000       0.003
   0.36363636  0.22222222  0.00000000       0.003
   0.45454545  0.22222222  0.00000000       0.003
   0.00000000  0.27777778  0.00000000       0.001
   0.09090909  0.27777778  0.00000000       0.003
   0.18181818  0.27777778  0.00000000       0.003
   0.27272727  0.27777778  0.00000000       0.003
   0.36363636  0.27777778  0.00000000       0.003
   0.45454545  0.27777778  0.00000000       0.003
   0.00000000  0.33333333  0.00000000       0.001
   0.09090909  0.33333333  0.00000000       0.003
   0.18181818  0.33333333  0.00000000       0.003
   0.27272727  0.33333333  0.00000000       0.003
   0.36363636  0.33333333  0.00000000       0.003
   0.45454545  0.33333333  0.00000000       0.003
   0.00000000  0.38888889  0.00000000       0.001
   0.09090909  0.38888889  0.00000000       0.003
   0.18181818  0.38888889  0.00000000       0.003
   0.27272727  0.38888889  0.00000000       0.003
   0.36363636  0.38888889  0.00000000       0.003
   0.45454545  0.38888889  0.00000000       0.003
   0.00000000  0.44444444  0.00000000       0.001
   0.09090909  0.44444444  0.00000000       0.003
   0.18181818  0.44444444  0.00000000       0.003
   0.27272727  0.44444444  0.00000000       0.003
   0.36363636  0.44444444  0.00000000       0.003
   0.45454545  0.44444444  0.00000000       0.003
   0.00000000  0.50000000  0.00000000       0.001
   0.09090909  0.50000000  0.00000000       0.001
   0.18181818  0.50000000  0.00000000       0.001
   0.27272727  0.50000000  0.00000000       0.001
   0.36363636  0.50000000  0.00000000       0.001
   0.45454545  0.50000000  0.00000000       0.001
   0.00000000  0.00000000  0.14285714       0.001
   0.09090909  0.00000000  0.14285714       0.001
   0.18181818  0.00000000  0.14285714       0.001
   0.27272727  0.00000000  0.14285714       0.001
   0.36363636  0.00000000  0.14285714       0.001
   0.45454545  0.00000000  0.14285714       0.001
  -0.45454545  0.00000000  0.14285714       0.001
  -0.36363636  0.00000000  0.14285714       0.001
  -0.27272727  0.00000000  0.14285714       0.001
  -0.18181818  0.00000000  0.14285714       0.001
  -0.09090909  0.00000000  0.14285714       0.001
   0.00000000  0.05555556  0.14285714       0.003
   0.09090909  0.05555556  0.14285714       0.003
   0.18181818  0.05555556  0.14285714       0.003
   0.27272727  0.05555556  0.14285714       0.003
   0.36363636  0.05555556  0.14285714       0.003
   0.45454545  0.05555556  0.14285714       0.003
  -0.45454545  0.05555556  0.14285714       0.003
  -0.36363636  0.05555556  0.14285714       0.003
  -0.27272727  0.05555556  0.14285714       0.003
  -0.18181818  0.05555556  0.14285714       0.003
  -0.09090909  0.05555556  0.14285714       0.003
   0.00000000  0.11111111  0.14285714       0.003
   0.09090909  0.11111111  0.14285714       0.003
   0.18181818  0.11111111  0.14285714       0.003
   0.27272727  0.11111111  0.14285714       0.003
   0.36363636  0.11111111  0.14285714       0.003
   0.45454545  0.11111111  0.14285714       0.003
  -0.45454545  0.11111111  0.14285714       0.003
  -0.36363636  0.11111111  0.14285714       0.003
  -0.27272727  0.11111111  0.14285714       0.003
  -0.18181818  0.11111111  0.14285714       0.003
  -0.09090909  0.11111111  0.14285714       0.003
   0.00000000  0.16666667  0.14285714       0.003
   0.09090909  0.16666667  0.14285714       0.003
   0.18181818  0.16666667  0.14285714       0.003
   0.27272727  0.16666667  0.14285714       0.003
   0.36363636  0.16666667  0.14285714       0.003
   0.45454545  0.16666667  0.14285714       0.003
  -0.45454545  0.16666667  0.14285714       0.003
  -0.36363636  0.16666667  0.14285714       0.003
  -0.27272727  0.16666667  0.14285714       0.003
  -0.18181818  0.16666667  0.14285714       0.003
  -0.09090909  0.16666667  0.14285714       0.003
   0.00000000  0.22222222  0.14285714       0.003
   0.09090909  0.22222222  0.14285714       0.003
   0.18181818  0.22222222  0.14285714       0.003
   0.27272727  0.22222222  0.14285714       0.003
   0.36363636  0.22222222  0.14285714       0.003
   0.45454545  0.22222222  0.14285714       0.003
  -0.45454545  0.22222222  0.14285714       0.003
  -0.36363636  0.22222222  0.14285714       0.003
  -0.27272727  0.22222222  0.14285714       0.003
  -0.18181818  0.22222222  0.14285714       0.003
  -0.09090909  0.22222222  0.14285714       0.003
   0.00000000  0.27777778  0.14285714       0.003
   0.09090909  0.27777778  0.14285714       0.003
   0.18181818  0.27777778  0.14285714       0.003
   0.27272727  0.27777778  0.14285714       0.003
   0.36363636  0.27777778  0.14285714       0.003
   0.45454545  0.27777778  0.14285714       0.003
  -0.45454545  0.27777778  0.14285714       0.003
  -0.36363636  0.27777778  0.14285714       0.003
  -0.27272727  0.27777778  0.14285714       0.003
  -0.18181818  0.27777778  0.14285714       0.003
  -0.09090909  0.27777778  0.14285714       0.003
   0.00000000  0.33333333  0.14285714       0.003
   0.09090909  0.33333333  0.14285714       0.003
   0.18181818  0.33333333  0.14285714       0.003
   0.27272727  0.33333333  0.14285714       0.003
   0.36363636  0.33333333  0.14285714       0.003
   0.45454545  0.33333333  0.14285714       0.003
  -0.45454545  0.33333333  0.14285714       0.003
  -0.36363636  0.33333333  0.14285714       0.003
  -0.27272727  0.33333333  0.14285714       0.003
  -0.18181818  0.33333333  0.14285714       0.003
  -0.09090909  0.33333333  0.14285714       0.003
   0.00000000  0.38888889  0.14285714       0.003
   0.09090909  0.38888889  0.14285714       0.003
   0.18181818  0.38888889  0.14285714       0.003
   0.27272727  0.38888889  0.14285714       0.003
   0.36363636  0.38888889  0.14285714       0.003
   0.45454545  0.38888889  0.14285714       0.003
  -0.45454545  0.38888889  0.14285714       0.003
  -0.36363636  0.38888889  0.14285714       0.003
  -0.27272727  0.38888889  0.14285714       0.003
  -0.18181818  0.38888889  0.14285714       0.003
  -0.09090909  0.38888889  0.14285714       0.003
   0.00000000  0.44444444  0.14285714       0.003
   0.09090909  0.44444444  0.14285714       0.003
   0.18181818  0.44444444  0.14285714       0.003
   0.27272727  0.44444444  0.14285714       0.003
   0.36363636  0.44444444  0.14285714       0.003
   0.45454545  0.44444444  0.14285714       0.003
  -0.45454545  0.44444444  0.14285714       0.003
  -0.36363636  0.44444444  0.14285714       0.003
  -0.27272727  0.44444444  0.14285714       0.003
  -0.18181818  0.44444444  0.14285714       0.003
  -0.09090909  0.44444444  0.14285714       0.003
   0.00000000  0.50000000  0.14285714       0.001
   0.09090909  0.50000000  0.14285714       0.001
   0.18181818  0.50000000  0.14285714       0.001
   0.27272727  0.50000000  0.14285714       0.001
   0.36363636  0.50000000  0.14285714       0.001
   0.45454545  0.50000000  0.14285714       0.001
  -0.45454545  0.50000000  0.14285714       0.001
  -0.36363636  0.50000000  0.14285714       0.001
  -0.27272727  0.50000000  0.14285714       0.001
  -0.18181818  0.50000000  0.14285714       0.001
  -0.09090909  0.50000000  0.14285714       0.001
   0.00000000  0.00000000  0.28571429       0.001
   0.09090909  0.00000000  0.28571429       0.001
   0.18181818  0.00000000  0.28571429       0.001
   0.27272727  0.00000000  0.28571429       0.001
   0.36363636  0.00000000  0.28571429       0.001
   0.45454545  0.00000000  0.28571429       0.001
  -0.45454545  0.00000000  0.28571429       0.001
  -0.36363636  0.00000000  0.28571429       0.001
  -0.27272727  0.00000000  0.28571429       0.001
  -0.18181818  0.00000000  0.28571429       0.001
  -0.09090909  0.00000000  0.28571429       0.001
   0.00000000  0.05555556  0.28571429       0.003
   0.09090909  0.05555556  0.28571429       0.003
   0.18181818  0.05555556  0.28571429       0.003
   0.27272727  0.05555556  0.28571429       0.003
   0.36363636  0.05555556  0.28571429       0.003
   0.45454545  0.05555556  0.28571429       0.003
  -0.45454545  0.05555556  0.28571429       0.003
  -0.36363636  0.05555556  0.28571429       0.003
  -0.27272727  0.05555556  0.28571429       0.003
  -0.18181818  0.05555556  0.28571429       0.003
  -0.09090909  0.05555556  0.28571429       0.003
   0.00000000  0.11111111  0.28571429       0.003
   0.09090909  0.11111111  0.28571429       0.003
   0.18181818  0.11111111  0.28571429       0.003
   0.27272727  0.11111111  0.28571429       0.003
   0.36363636  0.11111111  0.28571429       0.003
   0.45454545  0.11111111  0.28571429       0.003
  -0.45454545  0.11111111  0.28571429       0.003
  -0.36363636  0.11111111  0.28571429       0.003
  -0.27272727  0.11111111  0.28571429       0.003
  -0.18181818  0.11111111  0.28571429       0.003
  -0.09090909  0.11111111  0.28571429       0.003
   0.00000000  0.16666667  0.28571429       0.003
   0.09090909  0.16666667  0.28571429       0.003
   0.18181818  0.16666667  0.28571429       0.003
   0.27272727  0.16666667  0.28571429       0.003
   0.36363636  0.16666667  0.28571429       0.003
   0.45454545  0.16666667  0.28571429       0.003
  -0.45454545  0.16666667  0.28571429       0.003
  -0.36363636  0.16666667  0.28571429       0.003
  -0.27272727  0.16666667  0.28571429       0.003
[...]


--------------------------------------------------------------------------------------------------------




--------------------------------------- Iteration      3(   2)  ---------------------------------------


    POTLOK:  cpu time    0.0018: real time    0.0038
    SETDIJ:  cpu time    0.0018: real time    0.0018
    EDDIAG:  cpu time    1.6397: real time    1.6409
  RMM-DIIS:  cpu time    2.2607: real time    2.2610
    ORTHCH:  cpu time    0.1322: real time    0.1324
       DOS:  cpu time    0.0104: real time    0.0104
    CHARGE:  cpu time    0.2260: real time    0.2260
    MIXING:  cpu time    0.0002: real time    0.0002
    --------------------------------------------
      LOOP:  cpu time    4.2728: real time    4.2766

 eigenvalue-minimisations  : 28080
 total energy-change (2. order) : 0.4335291E-01  (-0.8162012E-02)
 number of electron      60.0000125 magnetization 
 augmentation part       18.6325001 magnetization 

 eigenvalues of (default mixing * dielectric matrix)
  average eigenvalue GAMMA=   1.2252
  1.2252

  free energy =  -0.365570187267E+02  energy without entropy=  -0.365556113089E+02


--------------------------------------------------------------------------------------------------------




--------------------------------------- Iteration      3(   3)  ---------------------------------------


    POTLOK:  cpu time    0.0017: real time    0.0017
    SETDIJ:  cpu time    0.0018: real time    0.0018
    EDDIAG:  cpu time    1.6451: real time    1.6453
  RMM-DIIS:  cpu time    2.3375: real time    2.3381
    ORTHCH:  cpu time    0.1330: real time    0.1330
       DOS:  cpu time    0.0101: real time    0.0101
    CHARGE:  cpu time    0.2256: real time    0.2256
    MIXING:  cpu time    0.0002: real time    0.0002
    --------------------------------------------
      LOOP:  cpu time    4.3550: real time    4.3558

 eigenvalue-minimisations  : 28297
 total energy-change (2. order) : 0.4175782E-02  (-0.1442139E-02)
 number of electron      60.0000125 magnetization 
 augmentation part       18.5947350 magnetization 

 eigenvalues of (default mixing * dielectric matrix)
  average eigenvalue GAMMA=   1.7984
  1.4802  2.1165

  free energy =  -0.365528429447E+02  energy without entropy=  -0.365515051830E+02


--------------------------------------------------------------------------------------------------------




--------------------------------------- Iteration      3(   4)  ---------------------------------------


    POTLOK:  cpu time    0.0018: real time    0.0037
    SETDIJ:  cpu time    0.0018: real time    0.0018
    EDDIAG:  cpu time    1.6641: real time    1.6645
  RMM-DIIS:  cpu time    2.3253: real time    2.3257
    ORTHCH:  cpu time    0.1331: real time    0.1331
       DOS:  cpu time    0.0102: real time    0.0102
    CHARGE:  cpu time    0.2253: real time    0.2254
    MIXING:  cpu time    0.0003: real time    0.0003
    --------------------------------------------
      LOOP:  cpu time    4.3619: real time    4.3646

 eigenvalue-minimisations  : 28547
 total energy-change (2. order) : 0.1367449E-03  (-0.1141043E-03)
 number of electron      60.0000125 magnetization 
 augmentation part       18.5965763 magnetization 

 eigenvalues of (default mixing * dielectric matrix)
  average eigenvalue GAMMA=   1.7838
  2.5753  1.3881  1.3881

  free energy =  -0.365527061998E+02  energy without entropy=  -0.365513766761E+02


--------------------------------------------------------------------------------------------------------




--------------------------------------- Iteration      3(   5)  ---------------------------------------


    POTLOK:  cpu time    0.0018: real time    0.0029
    SETDIJ:  cpu time    0.0018: real time    0.0018
    EDDIAG:  cpu time    1.6402: real time    1.6405
  RMM-DIIS:  cpu time    2.2935: real time    2.2939
    ORTHCH:  cpu time    0.1320: real time    0.1322
       DOS:  cpu time    0.0101: real time    0.0101
    CHARGE:  cpu time    0.2242: real time    0.2243
    MIXING:  cpu time    0.0003: real time    0.0003
    --------------------------------------------
      LOOP:  cpu time    4.3039: real time    4.3058

 eigenvalue-minimisations  : 28483
 total energy-change (2. order) :-0.1106393E-05  (-0.1404619E-04)
 number of electron      60.0000125 magnetization 
 augmentation part       18.5930076 magnetization 

 eigenvalues of (default mixing * dielectric matrix)
  average eigenvalue GAMMA=   1.6002
  2.4104  0.8977  1.6830  1.4096

  free energy =  -0.365527073062E+02  energy without entropy=  -0.365513748100E+02


--------------------------------------------------------------------------------------------------------




--------------------------------------- Iteration      3(   6)  ---------------------------------------


    POTLOK:  cpu time    0.0017: real time    0.0028
    SETDIJ:  cpu time    0.0018: real time    0.0017
    EDDIAG:  cpu time    1.6417: real time    1.6419
  RMM-DIIS:  cpu time    2.0553: real time    2.0558
    ORTHCH:  cpu time    0.1324: real time    0.1324
       DOS:  cpu time    0.0103: real time    0.0103
    CHARGE:  cpu time    0.2245: real time    0.2245
    MIXING:  cpu time    0.0003: real time    0.0003
    --------------------------------------------
      LOOP:  cpu time    4.0679: real time    4.0697

 eigenvalue-minimisations  : 24951
 total energy-change (2. order) : 0.2429363E-05  (-0.6547500E-06)
 number of electron      60.0000125 magnetization 
 augmentation part       18.5936187 magnetization 

 eigenvalues of (default mixing * dielectric matrix)
  average eigenvalue GAMMA=   1.9547
  3.4574  2.3458  0.9967  1.4026  1.5711

  free energy =  -0.365527048768E+02  energy without entropy=  -0.365513697248E+02


--------------------------------------------------------------------------------------------------------




--------------------------------------- Iteration      3(   7)  ---------------------------------------


    POTLOK:  cpu time    0.0018: real time    0.0028
    SETDIJ:  cpu time    0.0018: real time    0.0018
    EDDIAG:  cpu time    1.6424: real time    1.6428
  RMM-DIIS:  cpu time    1.4013: real time    1.4014
    ORTHCH:  cpu time    0.1338: real time    0.1338
       DOS:  cpu time    0.0102: real time    0.0102
    --------------------------------------------
      LOOP:  cpu time    3.1912: real time    3.1929

 eigenvalue-minimisations  : 15266
 total energy-change (2. order) :-0.2601619E-06  (-0.2515900E-06)
 number of electron      60.0000125 magnetization 
 augmentation part       18.5936187 magnetization 

  free energy =  -0.365527051370E+02  energy without entropy=  -0.365513696138E+02


--------------------------------------------------------------------------------------------------------




------------------------ aborting loop because EDIFF is reached ----------------------------------------


    CHARGE:  cpu time    0.2249: real time    0.2249
    FORLOC:  cpu time    0.0001: real time    0.0001
    FORNL :  cpu time    0.6440: real time    0.6441
    STRESS:  cpu time    1.1681: real time    1.1682
    FORCOR:  cpu time    0.0015: real time    0.0015
    FORHAR:  cpu time    0.0006: real time    0.0016
    MIXING:  cpu time    0.0003: real time    0.0003
    OFIELD:  cpu time    0.0000: real time    0.0000

  FORCE on cell =-STRESS in cart. coord.  units (eV):
  Direction    XX          YY          ZZ          XY          YZ          ZX
  --------------------------------------------------------------------------------------
  Alpha Z   368.44670   368.44670   368.44670
  Ewald   -1638.51574 -1667.17011 -1700.25364    -0.00000     0.00000    -7.99347
  Hartree   136.14136   128.03143   118.08159     0.00000    -0.00000    -2.50898
  E(xc)    -267.33538  -267.40581  -267.53225     0.00000     0.00000    -0.04276
  Local     183.50233   216.35013   254.41376     0.00000     0.00000     9.21037
  n-local    37.02687    33.57781    30.79664     1.07767    -0.93501    -0.49551
  augment   313.38591   315.57709   317.97095     0.00000     0.00000     0.58167
  Kinetic   870.12139   873.76885   878.19563     1.83714     0.42113     1.19621
  Fock        0.00000     0.00000     0.00000     0.00000     0.00000     0.00000
  -------------------------------------------------------------------------------------
  Total       2.77343     1.17609     0.11937     0.00000     0.00000    -0.05246
  in kB      47.84210    20.28776     2.05910     0.00000     0.00000    -0.90503
  external pressure =       23.40 kB  Pullay stress =        0.00 kB



--------------------------------------------------------------------------------------------------------



  FREE ENERGIE OF THE ION-ELECTRON SYSTEM (eV)
  ---------------------------------------------------
  free  energy   TOTEN  =       -36.55270514 eV

  energy  without entropy=      -36.55136961  energy(sigma->0) =      -36.55225996
 
 d Force = 0.0000000E+00[ 0.000E+00, 0.000E+00]  d Energy = 0.6708296E-02-0.671E-02
 d Force = 0.0000000E+00[ 0.000E+00, 0.000E+00]  d Ewald  =-0.1338524E+02 0.134E+02


--------------------------------------------------------------------------------------------------------


    POTLOK:  cpu time    0.0035: real time    0.0035


--------------------------------------------------------------------------------------------------------


 stress matrix after NEB project (eV)
      2.77343      0.00000     -0.05246
      0.00000      1.17609      0.00000
     -0.05246      0.00000      0.11937
  FORCES: max atom, RMS     0.000000    0.000000
  FORCE total and by dimension    0.000000    0.000000
  Stress total and by dimension    3.015770    2.773431
 Quasi-Newton relaxation of ions (Broydens 2nd method)
  g(Force)  = 0.629E-45   g(Stress)= 0.229E-04

 retain information from N=  1 steps
 eigenvalues of (default step * inverse Hessian matrix)
  average eigenvalue of G=   3.2715
 eigenvalue spectrum of G is  3.2715


--------------------------------------------------------------------------------------------------------


    WAVPRE:  cpu time    0.0018: real time    0.0020
    FEWALD:  cpu time    0.0002: real time    0.0002
    GENKIN:  cpu time    0.0936: real time    0.0936
    ORTHCH:  cpu time    0.2306: real time    0.2306
     LOOP+:  cpu time   39.5871: real time   39.6068


--------------------------------------- Iteration      4(   1)  ---------------------------------------


    POTLOK:  cpu time    0.0025: real time    0.0025
    SETDIJ:  cpu time    0.0018: real time    0.0018
     EDDAV:  cpu time   14.8255: real time   14.8284
       DOS:  cpu time    0.0100: real time    0.0100
    CHARGE:  cpu time    0.2304: real time    0.2306
    MIXING:  cpu time    0.0002: real time    0.0002
    --------------------------------------------
      LOOP:  cpu time   15.0705: real time   15.0735

 eigenvalue-minimisations  : 30876
 total energy-change (2. order) :-0.3259113E-03  (-0.1061960E-02)
 number of electron      60.0000124 magnetization 
 augmentation part       18.6054331 magnetization 

  free energy =  -0.365530307881E+02  energy without entropy=  -0.365516894986E+02


--------------------------------------------------------------------------------------------------------




--------------------------------------- Iteration      4(   2)  ---------------------------------------


    POTLOK:  cpu time    0.0017: real time    0.0017
    SETDIJ:  cpu time    0.0018: real time    0.0018
    EDDIAG:  cpu time    1.6351: real time    1.6354
  RMM-DIIS:  cpu time    2.2619: real time    2.2623
    ORTHCH:  cpu time    0.1326: real time    0.1328
       DOS:  cpu time    0.0102: real time    0.0102
    CHARGE:  cpu time    0.2246: real time    0.2246
    MIXING:  cpu time    0.0002: real time    0.0002
    --------------------------------------------
      LOOP:  cpu time    4.2682: real time    4.2691

 eigenvalue-minimisations  : 28080
 total energy-change (2. order) : 0.2759446E-03  (-0.5184728E-04)
 number of electron      60.0000124 magnetization 
 augmentation part       18.5977036 magnetization 

 eigenvalues of (default mixing * dielectric matrix)
  average eigenvalue GAMMA=   1.2452
  1.2452

  free energy =  -0.365527548435E+02  energy without entropy=  -0.365514269215E+02


--------------------------------------------------------------------------------------------------------




--------------------------------------- Iteration      4(   3)  ---------------------------------------


    POTLOK:  cpu time    0.0017: real time    0.0017
    SETDIJ:  cpu time    0.0018: real time    0.0018
    EDDIAG:  cpu time    1.6485: real time    1.6487
  RMM-DIIS:  cpu time    2.2643: real time    2.2648
    ORTHCH:  cpu time    0.1330: real time    0.1330
       DOS:  cpu time    0.0102: real time    0.0102
    CHARGE:  cpu time    0.2237: real time    0.2237
    MIXING:  cpu time    0.0002: real time    0.0002
    --------------------------------------------
      LOOP:  cpu time    4.2833: real time    4.2841

 eigenvalue-minimisations  : 28272
 total energy-change (2. order) : 0.2817853E-04  (-0.9269927E-05)
 number of electron      60.0000124 magnetization 
 augmentation part       18.5946738 magnetization 

 eigenvalues of (default mixing * dielectric matrix)
  average eigenvalue GAMMA=   1.8417
  1.4633  2.2201

  free energy =  -0.365527266650E+02  energy without entropy=  -0.365514051915E+02


--------------------------------------------------------------------------------------------------------




--------------------------------------- Iteration      4(   4)  ---------------------------------------


    POTLOK:  cpu time    0.0016: real time    0.0017
    SETDIJ:  cpu time    0.0018: real time    0.0018
    EDDIAG:  cpu time    1.6431: real time    1.6436
  RMM-DIIS:  cpu time    2.1012: real time    2.1016
    ORTHCH:  cpu time    0.1325: real time    0.1325
       DOS:  cpu time    0.0102: real time    0.0102
    CHARGE:  cpu time    0.2241: real time    0.2241
    MIXING:  cpu time    0.0003: real time    0.0003
    --------------------------------------------
      LOOP:  cpu time    4.1148: real time    4.1157

 eigenvalue-minimisations  : 25609
 total energy-change (2. order) : 0.2687872E-05  (-0.7568938E-06)
 number of electron      60.0000124 magnetization 
 augmentation part       18.5948555 magnetization 

 eigenvalues of (default mixing * dielectric matrix)
  average eigenvalue GAMMA=   1.7548
  2.4101  1.4271  1.4271

  free energy =  -0.365527239771E+02  energy without entropy=  -0.365514033343E+02


--------------------------------------------------------------------------------------------------------




--------------------------------------- Iteration      4(   5)  ---------------------------------------


    POTLOK:  cpu time    0.0017: real time    0.0017
    SETDIJ:  cpu time    0.0018: real time    0.0018
    EDDIAG:  cpu time    1.6459: real time    1.6464
  RMM-DIIS:  cpu time    1.3936: real time    1.3938
    ORTHCH:  cpu time    0.1381: real time    0.1381
       DOS:  cpu time    0.0103: real time    0.0103
    --------------------------------------------
      LOOP:  cpu time    3.1914: real time    3.1921

 eigenvalue-minimisations  : 14759
 total energy-change (2. order) : 0.4972935E-07  (-0.9031445E-07)
 number of electron      60.0000124 magnetization 
 augmentation part       18.5948555 magnetization 

  free energy =  -0.365527239274E+02  energy without entropy=  -0.365514030036E+02


--------------------------------------------------------------------------------------------------------




------------------------ aborting loop because EDIFF is reached ----------------------------------------


    CHARGE:  cpu time    0.2269: real time    0.2271
    FORLOC:  cpu time    0.0001: real time    0.0001
    FORNL :  cpu time    0.6465: real time    0.6465
    STRESS:  cpu time    1.1622: real time    1.1624
    FORCOR:  cpu time    0.0015: real time    0.0015
    FORHAR:  cpu time    0.0005: real time    0.0016
    MIXING:  cpu time    0.0002: real time    0.0002
    OFIELD:  cpu time    0.0000: real time    0.0000

  FORCE on cell =-STRESS in cart. coord.  units (eV):
  Direction    XX          YY          ZZ          XY          YZ          ZX
  --------------------------------------------------------------------------------------
  Alpha Z   368.21547   368.21547   368.21547
  Ewald   -1637.68967 -1666.35093 -1700.83132    -0.00000    -0.00000    -7.97274
  Hartree   136.39456   128.27817   117.90927     0.00000    -0.00000    -2.50479
  E(xc)    -267.31744  -267.38742  -267.51975     0.00000     0.00000    -0.04267
  Local     182.74678   215.62119   255.28179     0.00000     0.00000     9.19100
  n-local    36.95185    33.49331    30.60146     1.07987    -0.93840    -0.49216
  augment   313.35593   315.54396   318.03594    -0.00000    -0.00000     0.57885
  Kinetic   870.02636   873.66211   878.27784     1.83772     0.41986     1.19198
  Fock        0.00000     0.00000     0.00000     0.00000     0.00000     0.00000
  -------------------------------------------------------------------------------------
  Total       2.68384     1.07585    -0.02930     0.00000     0.00000    -0.05054
  in kB      46.26753    18.54697    -0.50509     0.00000     0.00000    -0.87123
  external pressure =       21.44 kB  Pullay stress =        0.00 kB



--------------------------------------------------------------------------------------------------------



  FREE ENERGIE OF THE ION-ELECTRON SYSTEM (eV)
  ---------------------------------------------------
  free  energy   TOTEN  =       -36.55272393 eV

  energy  without entropy=      -36.55140300  energy(sigma->0) =      -36.55228362
 
 d Force = 0.0000000E+00[ 0.000E+00, 0.000E+00]  d Energy = 0.1879039E-04-0.188E-04
 d Force = 0.0000000E+00[ 0.000E+00, 0.000E+00]  d Ewald  =-0.1067566E+01 0.107E+01


--------------------------------------------------------------------------------------------------------


    POTLOK:  cpu time    0.0036: real time    0.0036


--------------------------------------------------------------------------------------------------------


 stress matrix after NEB project (eV)
      2.68384      0.00000     -0.05054
      0.00000      1.07585      0.00000
     -0.05054      0.00000     -0.02930
  FORCES: max atom, RMS     0.000000    0.000000
  FORCE total and by dimension    0.000000    0.000000
  Stress total and by dimension    2.892474    2.683837
 Quasi-Newton relaxation of ions (Broydens 2nd method)
  g(Force)  = 0.738E-45   g(Stress)= 0.138E-05

 retain information from N=  1 steps
 eigenvalues of (default step * inverse Hessian matrix)
  average eigenvalue of G=   2.6264
 eigenvalue spectrum of G is  2.6264


--------------------------------------------------------------------------------------------------------


  
 reached required accuracy - stopping structural energy minimisation
     LOOP+:  cpu time   32.9751: real time   32.9846
    4ORBIT:  cpu time    0.0000: real time    0.0000

 total amount of memory used by VASP MPI-rank0    65001. kBytes
=======================================================================

   base      :      30000. kBytes
   nonl-proj :      20252. kBytes
   fftplans  :        255. kBytes
   grid      :        327. kBytes
   one-center:         15. kBytes
   wavefun   :      14152. kBytes
 
  
  
 General timing and accounting informations for this job:
 ========================================================
  
                  Total CPU time used (sec):      204.485
                            User time (sec):      162.943
                          System time (sec):       41.542
                         Elapsed time (sec):      204.586
  
                   Maximum memory used (kb):      145488.
                   Average memory used (kb):           0.
  
                          Minor page faults:       107463
                          Major page faults:            1
                 Voluntary context switches:     13771278
