       N       E                     dE             d eps       ncg     rms          rms(c)
DAV:   1     0.426945554310E+04    0.42695E+04   -0.26629E+05  3920   0.127E+03
DAV:   2    -0.596163343886E+02   -0.43291E+04   -0.39970E+04  4648   0.276E+02
DAV:   3    -0.390717071295E+03   -0.33110E+03   -0.29823E+03  4620   0.697E+01
DAV:   4    -0.407966450947E+03   -0.17249E+02   -0.15959E+02  5292   0.144E+01
DAV:   5    -0.408421150675E+03   -0.45470E+00   -0.45118E+00  4816   0.240E+00    0.826E+01
RMM:   6    -0.410061585006E+03   -0.16404E+01   -0.85328E+01  3937   0.143E+01    0.703E+01
RMM:   7    -0.451912908953E+03   -0.41851E+02   -0.16024E+02  3928   0.128E+01    0.660E+01
RMM:   8    -0.639225956145E+03   -0.18731E+03   -0.21937E+02  4020   0.138E+01    0.107E+02
RMM:   9    -0.411719207814E+03    0.22751E+03   -0.81692E+01  3925   0.986E+00    0.394E+01
RMM:  10    -0.390193808006E+03    0.21525E+02   -0.39504E+01  3932   0.776E+00    0.300E+01
RMM:  11    -0.384013175946E+03    0.61806E+01   -0.14509E+01  3935   0.456E+00    0.234E+01
RMM:  12    -0.380581085605E+03    0.34321E+01   -0.28614E+00  3939   0.213E+00    0.131E+01
RMM:  13    -0.380341474563E+03    0.23961E+00   -0.16248E+00  3942   0.158E+00    0.112E+01
RMM:  14    -0.379640819595E+03    0.70065E+00   -0.74998E-01  3943   0.111E+00    0.653E+00
RMM:  15    -0.379465504300E+03    0.17532E+00   -0.38597E-01  3942   0.800E-01    0.503E+00
RMM:  16    -0.379549123830E+03   -0.83620E-01   -0.23948E-01  3943   0.646E-01    0.636E+00
RMM:  17    -0.379371056418E+03    0.17807E+00   -0.14432E-01  3946   0.495E-01    0.441E+00
RMM:  18    -0.379289731910E+03    0.81325E-01   -0.96985E-02  3942   0.408E-01    0.282E+00
RMM:  19    -0.379259961930E+03    0.29770E-01   -0.39660E-02  3942   0.250E-01    0.173E+00
RMM:  20    -0.379249033733E+03    0.10928E-01   -0.15787E-02  3949   0.154E-01    0.107E+00
RMM:  21    -0.379239826480E+03    0.92073E-02   -0.31772E-03  3948   0.711E-02    0.605E-01
RMM:  22    -0.379236952847E+03    0.28736E-02   -0.19075E-03  3941   0.543E-02    0.352E-01
RMM:  23    -0.379237576437E+03   -0.62359E-03   -0.19116E-03  3941   0.537E-02    0.346E-01
RMM:  24    -0.379237836038E+03   -0.25960E-03   -0.73826E-04  3945   0.351E-02    0.260E-01
RMM:  25    -0.379237746901E+03    0.89137E-04   -0.32857E-04  3943   0.232E-02    0.142E-01
RMM:  26    -0.379237931425E+03   -0.18452E-03   -0.15092E-04  3948   0.148E-02    0.103E-01
RMM:  27    -0.379238141439E+03   -0.21001E-03   -0.77414E-05  3955   0.106E-02    0.834E-02
RMM:  28    -0.379238359623E+03   -0.21818E-03   -0.42590E-05  3927   0.767E-03    0.696E-02
RMM:  29    -0.379238790383E+03   -0.43076E-03   -0.95935E-05  3935   0.112E-02    0.372E-02
RMM:  30    -0.379238974407E+03   -0.18402E-03   -0.30867E-05  3933   0.611E-03    0.309E-02
RMM:  31    -0.379239183856E+03   -0.20945E-03   -0.22021E-05  3903   0.513E-03    0.363E-02
RMM:  32    -0.379239307954E+03   -0.12410E-03   -0.10605E-05  3470   0.344E-03    0.316E-02
RMM:  33    -0.379239571957E+03   -0.26400E-03   -0.31800E-05  3872   0.554E-03    0.322E-02
RMM:  34    -0.379239644159E+03   -0.72202E-04   -0.91453E-06  3224   0.276E-03    0.137E-02
RMM:  35    -0.379239710033E+03   -0.65874E-04   -0.38970E-06  2717   0.188E-03    0.144E-02
RMM:  36    -0.379239746936E+03   -0.36904E-04   -0.14673E-06  2328   0.120E-03    0.109E-02
RMM:  37    -0.379239797802E+03   -0.50866E-04   -0.19088E-06  2453   0.123E-03    0.739E-03
RMM:  38    -0.379239844412E+03   -0.46610E-04   -0.24196E-06  2585   0.123E-03    0.417E-03
RMM:  39    -0.379239856433E+03   -0.12020E-04   -0.54712E-07  1955   0.706E-04    0.234E-03
RMM:  40    -0.379239868224E+03   -0.11792E-04   -0.34561E-07  1509   0.574E-04    0.544E-03
RMM:  41    -0.379239879697E+03   -0.11472E-04   -0.44741E-07  2042   0.633E-04    0.299E-03
RMM:  42    -0.379239885676E+03   -0.59793E-05   -0.20172E-07  1084   0.430E-04    0.136E-03
RMM:  43    -0.379239892472E+03   -0.67963E-05   -0.38614E-07  1838   0.569E-04    0.608E-03
RMM:  44    -0.379239893343E+03   -0.87074E-06   -0.11974E-07  1005   0.371E-04
   1 F= -.41345293E+03 E0= -.41311105E+03  d E =-.413453E+03
       N       E                     dE             d eps       ncg     rms          rms(c)
DAV:   1    -0.379239847952E+03    0.44520E-04   -0.52138E-01  3976   0.127E+00    0.274E-01
RMM:   2    -0.379242540489E+03   -0.26925E-02   -0.15400E-02  3946   0.159E-01    0.482E-01
RMM:   3    -0.379241206386E+03    0.13341E-02   -0.25240E-03  3955   0.626E-02    0.388E-01
RMM:   4    -0.379241639290E+03   -0.43290E-03   -0.80650E-04  3954   0.319E-02    0.448E-01
RMM:   5    -0.379240093490E+03    0.15458E-02   -0.35367E-04  3942   0.228E-02    0.123E-01
RMM:   6    -0.379240317528E+03   -0.22404E-03   -0.28895E-04  3945   0.216E-02    0.202E-01
RMM:   7    -0.379240129094E+03    0.18843E-03   -0.15869E-04  3945   0.165E-02    0.103E-01
RMM:   8    -0.379240084041E+03    0.45053E-04   -0.70825E-05  3941   0.106E-02    0.473E-02
RMM:   9    -0.379240075490E+03    0.85509E-05   -0.20084E-05  3924   0.593E-03    0.280E-02
RMM:  10    -0.379240070783E+03    0.47067E-05   -0.59127E-06  3567   0.330E-03    0.145E-02
RMM:  11    -0.379240070680E+03    0.10326E-06   -0.93072E-07  2092   0.133E-03
   2 F= -.41345398E+03 E0= -.41311219E+03  d E =-.105365E-02
       N       E                     dE             d eps       ncg     rms          rms(c)
DAV:   1    -0.379240730226E+03   -0.65944E-03   -0.12067E-02  4032   0.149E-01    0.195E-02
RMM:   2    -0.379240764441E+03   -0.34215E-04   -0.19005E-04  3951   0.233E-02    0.542E-02
RMM:   3    -0.379240748048E+03    0.16393E-04   -0.16254E-05  3969   0.561E-03    0.164E-02
RMM:   4    -0.379240760136E+03   -0.12088E-04   -0.62873E-06  3483   0.315E-03    0.417E-02
RMM:   5    -0.379240750656E+03    0.94802E-05   -0.33742E-06  2562   0.219E-03    0.243E-02
RMM:   6    -0.379240748829E+03    0.18272E-05   -0.35474E-06  2628   0.249E-03    0.179E-02
RMM:   7    -0.379240748242E+03    0.58646E-06   -0.22373E-06  2196   0.217E-03
   3 F= -.41345419E+03 E0= -.41311242E+03  d E =-.204963E-03
       N       E                     dE             d eps       ncg     rms          rms(c)
DAV:   1    -0.379242630547E+03   -0.18817E-02   -0.69311E-01  3990   0.145E+00    0.273E-01
RMM:   2    -0.379249048859E+03   -0.64183E-02   -0.25691E-02  3947   0.200E-01    0.734E-01
RMM:   3    -0.379252062571E+03   -0.30137E-02   -0.35865E-03  3962   0.677E-02    0.985E-01
RMM:   4    -0.379243997972E+03    0.80646E-02   -0.20459E-03  3936   0.542E-02    0.230E-01
RMM:   5    -0.379243768677E+03    0.22929E-03   -0.54193E-04  3944   0.296E-02    0.165E-01
RMM:   6    -0.379243741362E+03    0.27315E-04   -0.23732E-04  3942   0.199E-02    0.134E-01
RMM:   7    -0.379243679141E+03    0.62221E-04   -0.11910E-04  3947   0.146E-02    0.954E-02
RMM:   8    -0.379243677736E+03    0.14058E-05   -0.79034E-05  3941   0.113E-02    0.813E-02
RMM:   9    -0.379243643675E+03    0.34061E-04   -0.34375E-05  3932   0.771E-03    0.402E-02
RMM:  10    -0.379243633830E+03    0.98441E-05   -0.84316E-06  3888   0.383E-03    0.165E-02
RMM:  11    -0.379243632413E+03    0.14177E-05   -0.17002E-06  2119   0.179E-03    0.809E-03
RMM:  12    -0.379243633233E+03   -0.81996E-06   -0.11265E-06  2091   0.148E-03
   4 F= -.41345868E+03 E0= -.41311697E+03  d E =-.448603E-02
       N       E                     dE             d eps       ncg     rms          rms(c)
DAV:   1    -0.379204775299E+03    0.38857E-01   -0.22132E+01  3920   0.755E+00    0.187E+00
RMM:   2    -0.379596238479E+03   -0.39146E+00   -0.73784E-01  3947   0.117E+00    0.675E+00
RMM:   3    -0.379297242730E+03    0.29900E+00   -0.39052E-02  3956   0.259E-01    0.314E+00
RMM:   4    -0.379341483846E+03   -0.44241E-01   -0.22562E-02  3951   0.191E-01    0.362E+00
RMM:   5    -0.379305077747E+03    0.36406E-01   -0.38861E-02  3940   0.245E-01    0.291E+00
RMM:   6    -0.379268584173E+03    0.36494E-01   -0.26056E-02  3944   0.202E-01    0.174E+00
RMM:   7    -0.379257587260E+03    0.10997E-01   -0.12453E-02  3939   0.138E-01    0.113E+00
RMM:   8    -0.379250978927E+03    0.66083E-02   -0.59103E-03  3938   0.973E-02    0.462E-01
RMM:   9    -0.379249696745E+03    0.12822E-02   -0.12325E-03  3945   0.457E-02    0.232E-01
RMM:  10    -0.379249493371E+03    0.20337E-03   -0.26976E-04  3951   0.206E-02    0.163E-01
RMM:  11    -0.379249504618E+03   -0.11247E-04   -0.33328E-04  3940   0.229E-02    0.154E-01
RMM:  12    -0.379249463449E+03    0.41169E-04   -0.27031E-04  3943   0.209E-02    0.127E-01
RMM:  13    -0.379249402671E+03    0.60779E-04   -0.86542E-05  3941   0.119E-02    0.771E-02
RMM:  14    -0.379249382179E+03    0.20491E-04   -0.35271E-05  3928   0.764E-03    0.376E-02
RMM:  15    -0.379249382152E+03    0.27452E-07   -0.13680E-05  3910   0.479E-03    0.137E-02
RMM:  16    -0.379249391171E+03   -0.90194E-05   -0.33696E-06  2547   0.246E-03    0.113E-02
RMM:  17    -0.379249404773E+03   -0.13602E-04   -0.15466E-06  2219   0.174E-03    0.104E-02
RMM:  18    -0.379249415905E+03   -0.11131E-04   -0.80282E-07  2176   0.120E-03    0.804E-03
RMM:  19    -0.379249423141E+03   -0.72368E-05   -0.42889E-07  2138   0.813E-04    0.462E-03
RMM:  20    -0.379249431938E+03   -0.87967E-05   -0.32215E-07  2058   0.645E-04    0.275E-03
RMM:  21    -0.379249442997E+03   -0.11059E-04   -0.34775E-07  1844   0.595E-04    0.164E-03
RMM:  22    -0.379249451504E+03   -0.85067E-05   -0.29294E-07  1651   0.532E-04    0.144E-03
RMM:  23    -0.379249465083E+03   -0.13579E-04   -0.66326E-07  1928   0.701E-04    0.179E-03
RMM:  24    -0.379249471737E+03   -0.66540E-05   -0.39242E-07  1559   0.536E-04    0.146E-03
RMM:  25    -0.379249477011E+03   -0.52736E-05   -0.34590E-07  1537   0.501E-04    0.105E-03
RMM:  26    -0.379249480350E+03   -0.33390E-05   -0.22387E-07  1239   0.419E-04    0.722E-04
RMM:  27    -0.379249483101E+03   -0.27510E-05   -0.14136E-07   970   0.385E-04    0.631E-04
RMM:  28    -0.379249484556E+03   -0.14552E-05   -0.76288E-08   778   0.363E-04    0.477E-04
RMM:  29    -0.379249485422E+03   -0.86649E-06   -0.30320E-08   572   0.344E-04
   5 F= -.41348985E+03 E0= -.41315041E+03  d E =-.311760E-01
       N       E                     dE             d eps       ncg     rms          rms(c)
DAV:   1    -0.379248286008E+03    0.11985E-02   -0.52388E-01  3976   0.123E+00    0.287E-01
RMM:   2    -0.379250678418E+03   -0.23924E-02   -0.18318E-02  3943   0.172E-01    0.410E-01
RMM:   3    -0.379249676777E+03    0.10016E-02   -0.24812E-03  3948   0.612E-02    0.375E-01
RMM:   4    -0.379249269307E+03    0.40747E-03   -0.40919E-04  3968   0.238E-02    0.273E-01
RMM:   5    -0.379249336847E+03   -0.67540E-04   -0.52041E-04  3943   0.268E-02    0.286E-01
RMM:   6    -0.379249076402E+03    0.26045E-03   -0.35804E-04  3942   0.235E-02    0.225E-01
RMM:   7    -0.379248845757E+03    0.23065E-03   -0.23353E-04  3943   0.197E-02    0.116E-01
RMM:   8    -0.379248790587E+03    0.55169E-04   -0.87687E-05  3940   0.119E-02    0.603E-02
RMM:   9    -0.379248770631E+03    0.19956E-04   -0.27602E-05  3929   0.692E-03    0.346E-02
RMM:  10    -0.379248763700E+03    0.69312E-05   -0.73797E-06  3837   0.357E-03    0.167E-02
RMM:  11    -0.379248762714E+03    0.98530E-06   -0.13692E-06  2101   0.160E-03
   6 F= -.41348971E+03 E0= -.41315039E+03  d E =0.141641E-03
       N       E                     dE             d eps       ncg     rms          rms(c)
DAV:   1    -0.379250333057E+03   -0.15694E-02   -0.37396E-02  4004   0.304E-01    0.111E-01
RMM:   2    -0.379250863593E+03   -0.53054E-03   -0.14275E-03  3947   0.505E-02    0.288E-01
RMM:   3    -0.379250491495E+03    0.37210E-03   -0.67447E-05  3964   0.109E-02    0.175E-01
RMM:   4    -0.379250718143E+03   -0.22665E-03   -0.61306E-05  3938   0.940E-03    0.226E-01
RMM:   5    -0.379250646688E+03    0.71455E-04   -0.16460E-04  3939   0.157E-02    0.211E-01
RMM:   6    -0.379250471924E+03    0.17476E-03   -0.11329E-04  3937   0.133E-02    0.117E-01
RMM:   7    -0.379250409572E+03    0.62353E-04   -0.57575E-05  3929   0.945E-03    0.558E-02
RMM:   8    -0.379250403113E+03    0.64586E-05   -0.20849E-05  3912   0.577E-03    0.340E-02
RMM:   9    -0.379250396891E+03    0.62223E-05   -0.62583E-06  3627   0.327E-03    0.146E-02
RMM:  10    -0.379250395896E+03    0.99535E-06   -0.11651E-06  2165   0.148E-03
   7 F= -.41349169E+03 E0= -.41315233E+03  d E =-.198110E-02
       N       E                     dE             d eps       ncg     rms          rms(c)
DAV:   1    -0.379247974439E+03    0.24225E-02   -0.70533E-01  3920   0.142E+00    0.266E-01
RMM:   2    -0.379252738447E+03   -0.47640E-02   -0.24223E-02  3944   0.198E-01    0.590E-01
RMM:   3    -0.379258312997E+03   -0.55746E-02   -0.35119E-03  3956   0.667E-02    0.104E+00
RMM:   4    -0.379249188672E+03    0.91243E-02   -0.18614E-03  3939   0.519E-02    0.196E-01
RMM:   5    -0.379249046600E+03    0.14207E-03   -0.37515E-04  3946   0.248E-02    0.134E-01
RMM:   6    -0.379249160766E+03   -0.11417E-03   -0.23453E-04  3943   0.194E-02    0.181E-01
RMM:   7    -0.379249029700E+03    0.13107E-03   -0.15741E-04  3944   0.164E-02    0.995E-02
RMM:   8    -0.379249000003E+03    0.29697E-04   -0.92077E-05  3933   0.123E-02    0.611E-02
RMM:   9    -0.379248981278E+03    0.18725E-04   -0.29652E-05  3928   0.729E-03    0.376E-02
RMM:  10    -0.379248972663E+03    0.86147E-05   -0.76797E-06  3859   0.365E-03    0.174E-02
RMM:  11    -0.379248971086E+03    0.15772E-05   -0.16980E-06  2118   0.179E-03    0.874E-03
RMM:  12    -0.379248971720E+03   -0.63387E-06   -0.96652E-07  2091   0.135E-03
   8 F= -.41349361E+03 E0= -.41315434E+03  d E =-.191800E-02
       N       E                     dE             d eps       ncg     rms          rms(c)
DAV:   1    -0.379143066645E+03    0.10590E+00   -0.49784E+01  3920   0.997E+00    0.143E+00
RMM:   2    -0.379533958573E+03   -0.39089E+00   -0.10109E+00  3954   0.158E+00    0.608E+00
RMM:   3    -0.379236859465E+03    0.29710E+00   -0.75467E-02  3977   0.366E-01    0.175E+00
RMM:   4    -0.379247804219E+03   -0.10945E-01   -0.28499E-02  3945   0.218E-01    0.203E+00
RMM:   5    -0.379234804414E+03    0.13000E-01   -0.22154E-02  3942   0.189E-01    0.180E+00
RMM:   6    -0.379224605671E+03    0.10199E-01   -0.13713E-02  3946   0.149E-01    0.122E+00
RMM:   7    -0.379223480732E+03    0.11249E-02   -0.10733E-02  3941   0.131E-01    0.104E+00
RMM:   8    -0.379218360174E+03    0.51206E-02   -0.48551E-03  3948   0.903E-02    0.604E-01
RMM:   9    -0.379216030021E+03    0.23302E-02   -0.16885E-03  3942   0.529E-02    0.287E-01
RMM:  10    -0.379215560395E+03    0.46963E-03   -0.45949E-04  3934   0.274E-02    0.171E-01
RMM:  11    -0.379215325483E+03    0.23491E-03   -0.34456E-04  3940   0.223E-02    0.927E-02
RMM:  12    -0.379215280457E+03    0.45026E-04   -0.13867E-04  3945   0.149E-02    0.679E-02
RMM:  13    -0.379215278362E+03    0.20950E-05   -0.43945E-05  3941   0.836E-03    0.657E-02
RMM:  14    -0.379215261644E+03    0.16718E-04   -0.23768E-05  3922   0.633E-03    0.373E-02
RMM:  15    -0.379215254909E+03    0.67346E-05   -0.10907E-05  3906   0.428E-03    0.175E-02
RMM:  16    -0.379215254391E+03    0.51814E-06   -0.24263E-06  2271   0.218E-03
   9 F= -.41354150E+03 E0= -.41320579E+03  d E =-.478892E-01
       N       E                     dE             d eps       ncg     rms          rms(c)
DAV:   1    -0.379213395649E+03    0.18593E-02   -0.52260E-01  3920   0.122E+00    0.270E-01
RMM:   2    -0.379215666508E+03   -0.22709E-02   -0.17948E-02  3943   0.169E-01    0.387E-01
RMM:   3    -0.379214812082E+03    0.85443E-03   -0.22618E-03  3946   0.582E-02    0.366E-01
RMM:   4    -0.379214483541E+03    0.32854E-03   -0.43339E-04  3968   0.243E-02    0.282E-01
RMM:   5    -0.379214317087E+03    0.16645E-03   -0.46630E-04  3940   0.255E-02    0.246E-01
RMM:   6    -0.379214165342E+03    0.15175E-03   -0.29227E-04  3943   0.213E-02    0.203E-01
RMM:   7    -0.379213972918E+03    0.19242E-03   -0.18814E-04  3940   0.178E-02    0.957E-02
RMM:   8    -0.379213940047E+03    0.32871E-04   -0.76219E-05  3939   0.111E-02    0.551E-02
RMM:   9    -0.379213925374E+03    0.14673E-04   -0.22557E-05  3927   0.628E-03    0.339E-02
RMM:  10    -0.379213919117E+03    0.62572E-05   -0.67669E-06  3754   0.343E-03    0.156E-02
RMM:  11    -0.379213918251E+03    0.86616E-06   -0.12882E-06  2089   0.157E-03
  10 F= -.41354103E+03 E0= -.41320543E+03  d E =0.471558E-03
       N       E                     dE             d eps       ncg     rms          rms(c)
DAV:   1    -0.379214019933E+03   -0.10082E-03   -0.94289E-03  4032   0.147E-01    0.436E-02
RMM:   2    -0.379214088490E+03   -0.68557E-04   -0.29322E-04  3946   0.240E-02    0.991E-02
RMM:   3    -0.379214053727E+03    0.34763E-04   -0.15855E-05  3931   0.535E-03    0.620E-02
RMM:   4    -0.379214091742E+03   -0.38015E-04   -0.14718E-05  3897   0.441E-03    0.900E-02
RMM:   5    -0.379214082826E+03    0.89161E-05   -0.29743E-05  3922   0.669E-03    0.883E-02
RMM:   6    -0.379214047622E+03    0.35203E-04   -0.18916E-05  3899   0.549E-03    0.359E-02
RMM:   7    -0.379214042273E+03    0.53489E-05   -0.77542E-06  3790   0.347E-03    0.192E-02
RMM:   8    -0.379214041198E+03    0.10753E-05   -0.26627E-06  2342   0.223E-03    0.100E-02
RMM:   9    -0.379214040654E+03    0.54441E-06   -0.77771E-07  2087   0.129E-03
  11 F= -.41354100E+03 E0= -.41320541E+03  d E =0.250922E-04
       N       E                     dE             d eps       ncg     rms          rms(c)
DAV:   1    -0.379213662880E+03    0.37832E-03   -0.61383E-01  3920   0.128E+00    0.312E-01
RMM:   2    -0.379216266905E+03   -0.26040E-02   -0.21671E-02  3949   0.188E-01    0.457E-01
RMM:   3    -0.379219730579E+03   -0.34637E-02   -0.26182E-03  3960   0.624E-02    0.762E-01
RMM:   4    -0.379216795418E+03    0.29352E-02   -0.20438E-03  3943   0.502E-02    0.535E-01
RMM:   5    -0.379215532799E+03    0.12626E-02   -0.85427E-04  3941   0.367E-02    0.408E-01
RMM:   6    -0.379214820565E+03    0.71223E-03   -0.52102E-04  3941   0.292E-02    0.181E-01
RMM:   7    -0.379214663929E+03    0.15664E-03   -0.30385E-04  3940   0.223E-02    0.114E-01
RMM:   8    -0.379214638773E+03    0.25155E-04   -0.11228E-04  3941   0.133E-02    0.925E-02
RMM:   9    -0.379214587557E+03    0.51216E-04   -0.40421E-05  3926   0.834E-03    0.358E-02
RMM:  10    -0.379214577463E+03    0.10094E-04   -0.88576E-06  3888   0.391E-03    0.937E-03
RMM:  11    -0.379214577886E+03   -0.42287E-06   -0.21383E-06  2185   0.199E-03
  12 F= -.41354489E+03 E0= -.41320917E+03  d E =-.388412E-02
       N       E                     dE             d eps       ncg     rms          rms(c)
DAV:   1    -0.379171728123E+03    0.42849E-01   -0.13396E+01  3920   0.503E+00    0.900E-01
RMM:   2    -0.379223315818E+03   -0.51588E-01   -0.24616E-01  3940   0.803E-01    0.218E+00
RMM:   3    -0.379198404305E+03    0.24912E-01   -0.15555E-02  4123   0.168E-01    0.119E+00
RMM:   4    -0.379225398801E+03   -0.26994E-01   -0.10455E-02  3953   0.124E-01    0.209E+00
RMM:   5    -0.379203608311E+03    0.21790E-01   -0.12189E-02  3942   0.137E-01    0.149E+00
RMM:   6    -0.379196327587E+03    0.72807E-02   -0.67402E-03  3948   0.102E-01    0.942E-01
RMM:   7    -0.379192575693E+03    0.37519E-02   -0.40038E-03  3941   0.799E-02    0.504E-01
RMM:   8    -0.379191597497E+03    0.97820E-03   -0.21935E-03  3942   0.596E-02    0.331E-01
RMM:   9    -0.379191046426E+03    0.55107E-03   -0.63197E-04  3947   0.321E-02    0.174E-01
RMM:  10    -0.379190856198E+03    0.19023E-03   -0.18103E-04  3944   0.168E-02    0.971E-02
RMM:  11    -0.379190791773E+03    0.64425E-04   -0.10813E-04  3939   0.138E-02    0.673E-02
RMM:  12    -0.379190792064E+03   -0.29167E-06   -0.10977E-04  3941   0.132E-02    0.748E-02
RMM:  13    -0.379190779861E+03    0.12203E-04   -0.38352E-05  3942   0.788E-03    0.517E-02
RMM:  14    -0.379190779866E+03   -0.51223E-08   -0.17115E-05  3929   0.536E-03    0.355E-02
RMM:  15    -0.379190777927E+03    0.19393E-05   -0.58284E-06  3403   0.321E-03    0.116E-02
RMM:  16    -0.379190780762E+03   -0.28352E-05   -0.13271E-06  2177   0.167E-03    0.625E-03
RMM:  17    -0.379190783929E+03   -0.31668E-05   -0.50802E-07  2117   0.102E-03    0.433E-03
RMM:  18    -0.379190789420E+03   -0.54910E-05   -0.36835E-07  2141   0.801E-04    0.301E-03
RMM:  19    -0.379190792619E+03   -0.31989E-05   -0.19133E-07  1947   0.554E-04    0.175E-03
RMM:  20    -0.379190797963E+03   -0.53440E-05   -0.23796E-07  1706   0.549E-04    0.168E-03
RMM:  21    -0.379190803002E+03   -0.50394E-05   -0.28622E-07  1749   0.548E-04    0.109E-03
RMM:  22    -0.379190805178E+03   -0.21759E-05   -0.12071E-07  1116   0.397E-04    0.776E-04
RMM:  23    -0.379190809022E+03   -0.38438E-05   -0.25266E-07  1539   0.505E-04    0.888E-04
RMM:  24    -0.379190811714E+03   -0.26918E-05   -0.21379E-07  1497   0.455E-04    0.677E-04
RMM:  25    -0.379190813936E+03   -0.22221E-05   -0.19881E-07  1329   0.423E-04    0.447E-04
RMM:  26    -0.379190815366E+03   -0.14304E-05   -0.11718E-07   963   0.380E-04    0.475E-04
RMM:  27    -0.379190815819E+03   -0.45259E-06   -0.41267E-08   641   0.336E-04
  13 F= -.41356168E+03 E0= -.41322597E+03  d E =-.167918E-01
       N       E                     dE             d eps       ncg     rms          rms(c)
DAV:   1    -0.379189402331E+03    0.14130E-02   -0.52189E-01  3920   0.124E+00    0.270E-01
RMM:   2    -0.379191789194E+03   -0.23869E-02   -0.18077E-02  3943   0.171E-01    0.402E-01
RMM:   3    -0.379190949317E+03    0.83988E-03   -0.23310E-03  3948   0.591E-02    0.386E-01
RMM:   4    -0.379190372685E+03    0.57663E-03   -0.42003E-04  3969   0.240E-02    0.260E-01
RMM:   5    -0.379190281748E+03    0.90937E-04   -0.45008E-04  3942   0.253E-02    0.236E-01
RMM:   6    -0.379190169402E+03    0.11235E-03   -0.29372E-04  3943   0.214E-02    0.205E-01
RMM:   7    -0.379189976152E+03    0.19325E-03   -0.18482E-04  3943   0.177E-02    0.987E-02
RMM:   8    -0.379189940959E+03    0.35194E-04   -0.76921E-05  3942   0.111E-02    0.550E-02
RMM:   9    -0.379189924376E+03    0.16582E-04   -0.23528E-05  3927   0.644E-03    0.308E-02
RMM:  10    -0.379189919009E+03    0.53678E-05   -0.61404E-06  3611   0.329E-03    0.155E-02
RMM:  11    -0.379189918177E+03    0.83111E-06   -0.12262E-06  2084   0.153E-03
  14 F= -.41356143E+03 E0= -.41322584E+03  d E =0.249376E-03
       N       E                     dE             d eps       ncg     rms          rms(c)
DAV:   1    -0.379190082855E+03   -0.16385E-03   -0.17283E-03  4060   0.621E-02    0.124E-02
RMM:   2    -0.379190091324E+03   -0.84692E-05   -0.43540E-05  3946   0.984E-03    0.245E-02
RMM:   3    -0.379190091784E+03   -0.45937E-06   -0.47550E-06  2996   0.291E-03
  15 F= -.41356148E+03 E0= -.41322591E+03  d E =-.526733E-04
       N       E                     dE             d eps       ncg     rms          rms(c)
DAV:   1    -0.379187345791E+03    0.27455E-02   -0.58832E-01  3920   0.128E+00    0.246E-01
RMM:   2    -0.379190392403E+03   -0.30466E-02   -0.20690E-02  3951   0.183E-01    0.423E-01
RMM:   3    -0.379196122059E+03   -0.57297E-02   -0.30124E-03  3967   0.627E-02    0.960E-01
RMM:   4    -0.379188477579E+03    0.76445E-02   -0.11343E-03  3950   0.404E-02    0.180E-01
RMM:   5    -0.379188575650E+03   -0.98071E-04   -0.35897E-04  3942   0.241E-02    0.206E-01
RMM:   6    -0.379188473091E+03    0.10256E-03   -0.22975E-04  3944   0.189E-02    0.152E-01
RMM:   7    -0.379188372493E+03    0.10060E-03   -0.17427E-04  3943   0.170E-02    0.884E-02
RMM:   8    -0.379188358546E+03    0.13947E-04   -0.74524E-05  3942   0.111E-02    0.646E-02
RMM:   9    -0.379188337103E+03    0.21443E-04   -0.27293E-05  3926   0.689E-03    0.372E-02
RMM:  10    -0.379188328296E+03    0.88068E-05   -0.78677E-06  3853   0.367E-03    0.143E-02
RMM:  11    -0.379188327282E+03    0.10136E-05   -0.14283E-06  2100   0.164E-03    0.869E-03
RMM:  12    -0.379188327705E+03   -0.42298E-06   -0.85071E-07  2080   0.126E-03
  16 F= -.41356356E+03 E0= -.41322797E+03  d E =-.208012E-02
       N       E                     dE             d eps       ncg     rms          rms(c)
DAV:   1    -0.379094366872E+03    0.93960E-01   -0.30197E+01  3920   0.779E+00    0.123E+00
RMM:   2    -0.379176430769E+03   -0.82064E-01   -0.53920E-01  3962   0.120E+00    0.222E+00
RMM:   3    -0.379222046916E+03   -0.45616E-01   -0.53318E-02  3987   0.292E-01    0.307E+00
RMM:   4    -0.379149106188E+03    0.72941E-01   -0.28633E-02  3944   0.205E-01    0.124E+00
RMM:   5    -0.379147637997E+03    0.14682E-02   -0.14668E-02  3949   0.152E-01    0.142E+00
RMM:   6    -0.379138215904E+03    0.94221E-02   -0.82691E-03  3942   0.117E-01    0.691E-01
RMM:   7    -0.379137320162E+03    0.89574E-03   -0.53133E-03  3944   0.928E-02    0.560E-01
RMM:   8    -0.379136449839E+03    0.87032E-03   -0.27997E-03  3945   0.689E-02    0.412E-01
RMM:   9    -0.379135408929E+03    0.10409E-02   -0.85218E-04  3948   0.382E-02    0.204E-01
RMM:  10    -0.379135182552E+03    0.22638E-03   -0.20816E-04  3949   0.183E-02    0.116E-01
RMM:  11    -0.379135082345E+03    0.10021E-03   -0.11292E-04  3937   0.137E-02    0.635E-02
RMM:  12    -0.379135059359E+03    0.22987E-04   -0.54988E-05  3934   0.899E-03    0.404E-02
RMM:  13    -0.379135060681E+03   -0.13224E-05   -0.21708E-05  3929   0.598E-03    0.410E-02
RMM:  14    -0.379135050562E+03    0.10120E-04   -0.96770E-06  3911   0.412E-03    0.147E-02
RMM:  15    -0.379135050566E+03   -0.46639E-08   -0.21487E-06  2217   0.211E-03
  17 F= -.41357573E+03 E0= -.41324204E+03  d E =-.121708E-01
       N       E                     dE             d eps       ncg     rms          rms(c)
DAV:   1    -0.379134358476E+03    0.69209E-03   -0.52265E-01  3920   0.125E+00    0.277E-01
RMM:   2    -0.379136764903E+03   -0.24064E-02   -0.18390E-02  3944   0.173E-01    0.401E-01
RMM:   3    -0.379135965045E+03    0.79986E-03   -0.24092E-03  3951   0.600E-02    0.393E-01
RMM:   4    -0.379135167251E+03    0.79779E-03   -0.36947E-04  3971   0.227E-02    0.222E-01
RMM:   5    -0.379135222727E+03   -0.55476E-04   -0.43917E-04  3941   0.253E-02    0.220E-01
RMM:   6    -0.379135073808E+03    0.14892E-03   -0.30526E-04  3943   0.221E-02    0.173E-01
RMM:   7    -0.379134950457E+03    0.12335E-03   -0.15126E-04  3945   0.159E-02    0.110E-01
RMM:   8    -0.379134912543E+03    0.37914E-04   -0.65178E-05  3940   0.101E-02    0.621E-02
RMM:   9    -0.379134891345E+03    0.21198E-04   -0.26138E-05  3926   0.673E-03    0.322E-02
RMM:  10    -0.379134885405E+03    0.59408E-05   -0.63661E-06  3679   0.332E-03    0.154E-02
RMM:  11    -0.379134884837E+03    0.56726E-06   -0.12339E-06  2095   0.152E-03
  18 F= -.41357609E+03 E0= -.41324251E+03  d E =-.357882E-03
       N       E                     dE             d eps       ncg     rms          rms(c)
DAV:   1    -0.379135151357E+03   -0.26595E-03   -0.66488E-03  4060   0.121E-01    0.358E-02
RMM:   2    -0.379135264791E+03   -0.11343E-03   -0.21715E-04  3951   0.209E-02    0.124E-01
RMM:   3    -0.379135174791E+03    0.90000E-04   -0.17364E-05  3930   0.540E-03    0.599E-02
RMM:   4    -0.379135181084E+03   -0.62925E-05   -0.64903E-06  3559   0.329E-03    0.589E-02
RMM:   5    -0.379135189660E+03   -0.85764E-05   -0.18488E-05  3919   0.542E-03    0.698E-02
RMM:   6    -0.379135170418E+03    0.19242E-04   -0.13362E-05  3886   0.458E-03    0.363E-02
RMM:   7    -0.379135164479E+03    0.59392E-05   -0.60405E-06  3502   0.312E-03    0.176E-02
RMM:   8    -0.379135164019E+03    0.46026E-06   -0.22243E-06  2277   0.204E-03
  19 F= -.41357645E+03 E0= -.41324286E+03  d E =-.359281E-03
       N       E                     dE             d eps       ncg     rms          rms(c)
DAV:   1    -0.379130644303E+03    0.45202E-02   -0.59768E-01  3920   0.130E+00    0.248E-01
RMM:   2    -0.379133663909E+03   -0.30196E-02   -0.21193E-02  3951   0.185E-01    0.417E-01
RMM:   3    -0.379139064811E+03   -0.54009E-02   -0.29990E-03  3969   0.630E-02    0.934E-01
RMM:   4    -0.379131746953E+03    0.73179E-02   -0.11349E-03  3945   0.401E-02    0.169E-01
RMM:   5    -0.379131766239E+03   -0.19286E-04   -0.32848E-04  3943   0.231E-02    0.165E-01
RMM:   6    -0.379131777690E+03   -0.11451E-04   -0.22213E-04  3944   0.187E-02    0.163E-01
RMM:   7    -0.379131677614E+03    0.10008E-03   -0.16965E-04  3943   0.168E-02    0.995E-02
RMM:   8    -0.379131649026E+03    0.28589E-04   -0.79297E-05  3941   0.114E-02    0.634E-02
RMM:   9    -0.379131629841E+03    0.19185E-04   -0.28788E-05  3930   0.707E-03    0.391E-02
RMM:  10    -0.379131620098E+03    0.97425E-05   -0.85497E-06  3884   0.382E-03    0.146E-02
RMM:  11    -0.379131618891E+03    0.12072E-05   -0.15846E-06  2098   0.172E-03    0.771E-03
RMM:  12    -0.379131619421E+03   -0.52973E-06   -0.84160E-07  2071   0.129E-03
  20 F= -.41357697E+03 E0= -.41324345E+03  d E =-.524188E-03
       N       E                     dE             d eps       ncg     rms          rms(c)
DAV:   1    -0.379027379641E+03    0.10424E+00   -0.31610E+01  3920   0.804E+00    0.106E+00
RMM:   2    -0.379157548659E+03   -0.13017E+00   -0.57061E-01  3971   0.123E+00    0.312E+00
RMM:   3    -0.379106667107E+03    0.50882E-01   -0.49568E-02  4000   0.291E-01    0.189E+00
RMM:   4    -0.379088399012E+03    0.18268E-01   -0.23817E-02  3944   0.189E-01    0.144E+00
RMM:   5    -0.379077339813E+03    0.11059E-01   -0.86696E-03  3953   0.121E-01    0.951E-01
RMM:   6    -0.379074263444E+03    0.30764E-02   -0.41452E-03  3945   0.834E-02    0.681E-01
RMM:   7    -0.379073952391E+03    0.31105E-03   -0.44158E-03  3944   0.856E-02    0.617E-01
RMM:   8    -0.379073060533E+03    0.89186E-03   -0.28017E-03  3946   0.680E-02    0.481E-01
RMM:   9    -0.379071779808E+03    0.12807E-02   -0.90834E-04  3944   0.393E-02    0.225E-01
RMM:  10    -0.379071506812E+03    0.27300E-03   -0.24203E-04  3944   0.196E-02    0.137E-01
RMM:  11    -0.379071375691E+03    0.13112E-03   -0.11846E-04  3941   0.138E-02    0.767E-02
RMM:  12    -0.379071346124E+03    0.29567E-04   -0.56333E-05  3936   0.917E-03    0.527E-02
RMM:  13    -0.379071341658E+03    0.44660E-05   -0.21317E-05  3930   0.573E-03    0.436E-02
RMM:  14    -0.379071336678E+03    0.49808E-05   -0.16246E-05  3920   0.518E-03    0.306E-02
RMM:  15    -0.379071330344E+03    0.63334E-05   -0.55109E-06  3338   0.317E-03    0.832E-03
RMM:  16    -0.379071330655E+03   -0.31113E-06   -0.14032E-06  2116   0.170E-03
  21 F= -.41358813E+03 E0= -.41325746E+03  d E =-.111521E-01
       N       E                     dE             d eps       ncg     rms          rms(c)
DAV:   1    -0.379071371037E+03   -0.40693E-04   -0.52248E-01  3920   0.125E+00    0.276E-01
RMM:   2    -0.379073909577E+03   -0.25385E-02   -0.18392E-02  3944   0.173E-01    0.417E-01
RMM:   3    -0.379073429900E+03    0.47968E-03   -0.25714E-03  3951   0.616E-02    0.461E-01
RMM:   4    -0.379072181060E+03    0.12488E-02   -0.44102E-04  3968   0.249E-02    0.226E-01
RMM:   5    -0.379072204127E+03   -0.23067E-04   -0.41700E-04  3942   0.247E-02    0.221E-01
RMM:   6    -0.379072133224E+03    0.70903E-04   -0.29165E-04  3944   0.214E-02    0.208E-01
RMM:   7    -0.379071945294E+03    0.18793E-03   -0.17580E-04  3944   0.172E-02    0.105E-01
RMM:   8    -0.379071903122E+03    0.42172E-04   -0.77727E-05  3941   0.112E-02    0.546E-02
RMM:   9    -0.379071885970E+03    0.17151E-04   -0.24437E-05  3929   0.655E-03    0.276E-02
RMM:  10    -0.379071881228E+03    0.47420E-05   -0.59190E-06  3549   0.324E-03    0.141E-02
RMM:  11    -0.379071880771E+03    0.45765E-06   -0.96141E-07  2093   0.134E-03
  22 F= -.41358919E+03 E0= -.41325865E+03  d E =-.106648E-02
       N       E                     dE             d eps       ncg     rms          rms(c)
DAV:   1    -0.379071832161E+03    0.49067E-04   -0.30893E-03  4060   0.834E-02    0.145E-02
RMM:   2    -0.379071854643E+03   -0.22482E-04   -0.73996E-05  3955   0.129E-02    0.470E-02
RMM:   3    -0.379071844076E+03    0.10567E-04   -0.76261E-06  3708   0.344E-03    0.297E-02
RMM:   4    -0.379071841184E+03    0.28915E-05   -0.40910E-06  2836   0.255E-03    0.232E-02
RMM:   5    -0.379071838943E+03    0.22413E-05   -0.20270E-06  2191   0.199E-03    0.169E-02
RMM:   6    -0.379071838085E+03    0.85741E-06   -0.12849E-06  2107   0.169E-03
  23 F= -.41358916E+03 E0= -.41325861E+03  d E =0.347834E-04
       N       E                     dE             d eps       ncg     rms          rms(c)
DAV:   1    -0.379072875302E+03   -0.10364E-02   -0.71951E-01  3920   0.144E+00    0.330E-01
RMM:   2    -0.379076790754E+03   -0.39155E-02   -0.29033E-02  3948   0.211E-01    0.515E-01
RMM:   3    -0.379082289588E+03   -0.54988E-02   -0.40175E-03  3963   0.744E-02    0.991E-01
RMM:   4    -0.379074206678E+03    0.80829E-02   -0.14301E-03  3950   0.440E-02    0.220E-01
RMM:   5    -0.379074594054E+03   -0.38738E-03   -0.80509E-04  3942   0.355E-02    0.321E-01
RMM:   6    -0.379074313169E+03    0.28088E-03   -0.49562E-04  3944   0.282E-02    0.219E-01
RMM:   7    -0.379074099204E+03    0.21397E-03   -0.34907E-04  3942   0.238E-02    0.129E-01
RMM:   8    -0.379074050433E+03    0.48771E-04   -0.14108E-04  3942   0.151E-02    0.864E-02
RMM:   9    -0.379074008312E+03    0.42121E-04   -0.49134E-05  3938   0.917E-03    0.491E-02
RMM:  10    -0.379073991842E+03    0.16470E-04   -0.13650E-05  3915   0.477E-03    0.146E-02
RMM:  11    -0.379073991182E+03    0.65996E-06   -0.29987E-06  2436   0.235E-03
  24 F= -.41359088E+03 E0= -.41326029E+03  d E =-.172225E-02
       N       E                     dE             d eps       ncg     rms          rms(c)
DAV:   1    -0.379074832078E+03   -0.84024E-03   -0.24606E+00  3920   0.221E+00    0.505E-01
RMM:   2    -0.379085500356E+03   -0.10668E-01   -0.57567E-02  3949   0.364E-01    0.104E+00
RMM:   3    -0.379081342348E+03    0.41580E-02   -0.37998E-03  3978   0.807E-02    0.723E-01
RMM:   4    -0.379083371758E+03   -0.20294E-02   -0.22786E-03  3971   0.569E-02    0.795E-01
RMM:   5    -0.379082051914E+03    0.13198E-02   -0.35626E-03  3943   0.735E-02    0.767E-01
RMM:   6    -0.379079721521E+03    0.23304E-02   -0.18568E-03  3949   0.546E-02    0.433E-01
RMM:   7    -0.379078991472E+03    0.73005E-03   -0.10583E-03  3940   0.411E-02    0.229E-01
RMM:   8    -0.379078844380E+03    0.14709E-03   -0.46621E-04  3943   0.278E-02    0.153E-01
RMM:   9    -0.379078698789E+03    0.14559E-03   -0.13191E-04  3949   0.149E-02    0.664E-02
RMM:  10    -0.379078671502E+03    0.27288E-04   -0.34633E-05  3939   0.757E-03    0.346E-02
RMM:  11    -0.379078667208E+03    0.42934E-05   -0.25867E-05  3927   0.629E-03    0.314E-02
RMM:  12    -0.379078662226E+03    0.49823E-05   -0.17544E-05  3928   0.533E-03    0.218E-02
RMM:  13    -0.379078661381E+03    0.84459E-06   -0.49562E-06  3202   0.294E-03
  25 F= -.41359601E+03 E0= -.41326577E+03  d E =-.512729E-02
       N       E                     dE             d eps       ncg     rms          rms(c)
DAV:   1    -0.379078308180E+03    0.35405E-03   -0.52211E-01  3920   0.125E+00    0.270E-01
RMM:   2    -0.379080791523E+03   -0.24833E-02   -0.18337E-02  3944   0.172E-01    0.407E-01
RMM:   3    -0.379080445016E+03    0.34651E-03   -0.24944E-03  3951   0.605E-02    0.462E-01
RMM:   4    -0.379079159560E+03    0.12855E-02   -0.45626E-04  3969   0.253E-02    0.227E-01
RMM:   5    -0.379079123219E+03    0.36340E-04   -0.40526E-04  3942   0.245E-02    0.209E-01
RMM:   6    -0.379079083369E+03    0.39850E-04   -0.27925E-04  3945   0.210E-02    0.203E-01
RMM:   7    -0.379078899472E+03    0.18390E-03   -0.16640E-04  3942   0.168E-02    0.953E-02
RMM:   8    -0.379078870241E+03    0.29231E-04   -0.72610E-05  3941   0.108E-02    0.546E-02
RMM:   9    -0.379078854715E+03    0.15525E-04   -0.24123E-05  3927   0.650E-03    0.309E-02
RMM:  10    -0.379078849580E+03    0.51355E-05   -0.58929E-06  3560   0.324E-03    0.148E-02
RMM:  11    -0.379078849127E+03    0.45299E-06   -0.12145E-06  2099   0.151E-03
  26 F= -.41359674E+03 E0= -.41326661E+03  d E =-.731020E-03
       N       E                     dE             d eps       ncg     rms          rms(c)
DAV:   1    -0.379079036494E+03   -0.18691E-03   -0.46621E-03  4032   0.102E-01    0.292E-02
RMM:   2    -0.379079070469E+03   -0.33975E-04   -0.14275E-04  3952   0.171E-02    0.680E-02
RMM:   3    -0.379079047925E+03    0.22543E-04   -0.98992E-06  3879   0.441E-03    0.292E-02
RMM:   4    -0.379079056009E+03   -0.80834E-05   -0.84028E-06  3840   0.378E-03    0.411E-02
RMM:   5    -0.379079076806E+03   -0.20798E-04   -0.11367E-05  3874   0.390E-03    0.600E-02
RMM:   6    -0.379079053000E+03    0.23806E-04   -0.56202E-06  3252   0.263E-03    0.272E-02
RMM:   7    -0.379079049323E+03    0.36771E-05   -0.31246E-06  2474   0.236E-03    0.141E-02
RMM:   8    -0.379079049261E+03    0.61598E-07   -0.14108E-06  2147   0.171E-03
  27 F= -.41359688E+03 E0= -.41326677E+03  d E =-.141090E-03
       N       E                     dE             d eps       ncg     rms          rms(c)
DAV:   1    -0.379078995355E+03    0.53968E-04   -0.75085E-01  3920   0.149E+00    0.282E-01
RMM:   2    -0.379083960204E+03   -0.49648E-02   -0.28804E-02  3945   0.209E-01    0.583E-01
RMM:   3    -0.379089976502E+03   -0.60163E-02   -0.39272E-03  3959   0.708E-02    0.106E+00
RMM:   4    -0.379080541076E+03    0.94354E-02   -0.20709E-03  3938   0.539E-02    0.230E-01
RMM:   5    -0.379080313537E+03    0.22754E-03   -0.47516E-04  3945   0.275E-02    0.157E-01
RMM:   6    -0.379080347654E+03   -0.34117E-04   -0.24393E-04  3943   0.203E-02    0.163E-01
RMM:   7    -0.379080257232E+03    0.90422E-04   -0.14300E-04  3943   0.158E-02    0.106E-01
RMM:   8    -0.379080228568E+03    0.28664E-04   -0.96401E-05  3934   0.125E-02    0.655E-02
RMM:   9    -0.379080200561E+03    0.28007E-04   -0.32849E-05  3930   0.769E-03    0.277E-02
RMM:  10    -0.379080195302E+03    0.52583E-05   -0.72799E-06  3826   0.359E-03    0.135E-02
RMM:  11    -0.379080194989E+03    0.31358E-06   -0.15331E-06  2113   0.170E-03
  28 F= -.41359698E+03 E0= -.41326687E+03  d E =-.981388E-04
       N       E                     dE             d eps       ncg     rms          rms(c)
DAV:   1    -0.379080951220E+03   -0.75592E-03   -0.68682E-01  3920   0.129E+00    0.235E-01
RMM:   2    -0.379088285282E+03   -0.73341E-02   -0.18105E-02  3943   0.192E-01    0.882E-01
RMM:   3    -0.379083349001E+03    0.49363E-02   -0.86161E-04  3979   0.396E-02    0.432E-01
RMM:   4    -0.379084754759E+03   -0.14058E-02   -0.72010E-04  3954   0.338E-02    0.566E-01
RMM:   5    -0.379083076960E+03    0.16778E-02   -0.66291E-04  3942   0.315E-02    0.371E-01
RMM:   6    -0.379082701619E+03    0.37534E-03   -0.29016E-04  3943   0.212E-02    0.256E-01
RMM:   7    -0.379082436529E+03    0.26509E-03   -0.21405E-04  3939   0.182E-02    0.145E-01
RMM:   8    -0.379082296918E+03    0.13961E-03   -0.11090E-04  3941   0.132E-02    0.565E-02
RMM:   9    -0.379082282361E+03    0.14557E-04   -0.25409E-05  3931   0.632E-03    0.293E-02
RMM:  10    -0.379082278104E+03    0.42575E-05   -0.72686E-06  3744   0.339E-03    0.159E-02
RMM:  11    -0.379082278549E+03   -0.44491E-06   -0.48704E-06  3265   0.288E-03
  29 F= -.41359779E+03 E0= -.41326797E+03  d E =-.814817E-03
       N       E                     dE             d eps       ncg     rms          rms(c)
DAV:   1    -0.379081775378E+03    0.50273E-03   -0.52270E-01  3920   0.124E+00    0.275E-01
RMM:   2    -0.379084294908E+03   -0.25195E-02   -0.18289E-02  3943   0.172E-01    0.416E-01
RMM:   3    -0.379084763146E+03   -0.46824E-03   -0.26134E-03  3949   0.617E-02    0.571E-01
RMM:   4    -0.379082510233E+03    0.22529E-02   -0.52390E-04  3971   0.271E-02    0.211E-01
RMM:   5    -0.379082630064E+03   -0.11983E-03   -0.41107E-04  3941   0.249E-02    0.232E-01
RMM:   6    -0.379082543550E+03    0.86514E-04   -0.29068E-04  3942   0.212E-02    0.204E-01
RMM:   7    -0.379082354174E+03    0.18938E-03   -0.20064E-04  3943   0.184E-02    0.101E-01
RMM:   8    -0.379082317266E+03    0.36908E-04   -0.79101E-05  3943   0.113E-02    0.578E-02
RMM:   9    -0.379082301398E+03    0.15868E-04   -0.24675E-05  3929   0.654E-03    0.364E-02
RMM:  10    -0.379082294335E+03    0.70627E-05   -0.70521E-06  3804   0.349E-03    0.172E-02
RMM:  11    -0.379082293208E+03    0.11270E-05   -0.14863E-06  2115   0.168E-03    0.102E-02
RMM:  12    -0.379082293788E+03   -0.57986E-06   -0.82379E-07  2089   0.124E-03
  30 F= -.41359839E+03 E0= -.41326869E+03  d E =-.598112E-03
       N       E                     dE             d eps       ncg     rms          rms(c)
DAV:   1    -0.379082323104E+03   -0.29896E-04   -0.37948E-03  4060   0.897E-02    0.143E-02
RMM:   2    -0.379082335773E+03   -0.12669E-04   -0.74170E-05  3945   0.136E-02    0.316E-02
RMM:   3    -0.379082335085E+03    0.68809E-06   -0.63667E-06  3530   0.332E-03
  31 F= -.41359835E+03 E0= -.41326864E+03  d E =0.366256E-04
       N       E                     dE             d eps       ncg     rms          rms(c)
DAV:   1    -0.379081497881E+03    0.83789E-03   -0.76310E-01  3920   0.148E+00    0.285E-01
RMM:   2    -0.379085619659E+03   -0.41218E-02   -0.27106E-02  3945   0.207E-01    0.543E-01
RMM:   3    -0.379089844456E+03   -0.42248E-02   -0.33112E-03  3959   0.685E-02    0.892E-01
RMM:   4    -0.379083387694E+03    0.64568E-02   -0.18080E-03  3946   0.483E-02    0.311E-01
RMM:   5    -0.379082950590E+03    0.43710E-03   -0.58178E-04  3942   0.308E-02    0.202E-01
RMM:   6    -0.379082916247E+03    0.34343E-04   -0.29964E-04  3942   0.221E-02    0.192E-01
RMM:   7    -0.379082752505E+03    0.16374E-03   -0.14251E-04  3944   0.159E-02    0.835E-02
RMM:   8    -0.379082755858E+03   -0.33538E-05   -0.99830E-05  3940   0.127E-02    0.706E-02
RMM:   9    -0.379082725996E+03    0.29862E-04   -0.35207E-05  3928   0.783E-03    0.388E-02
RMM:  10    -0.379082716771E+03    0.92249E-05   -0.74686E-06  3838   0.364E-03    0.170E-02
RMM:  11    -0.379082715802E+03    0.96910E-06   -0.15937E-06  2102   0.173E-03
  32 F= -.41359829E+03 E0= -.41326844E+03  d E =0.605744E-04
       N       E                     dE             d eps       ncg     rms          rms(c)
DAV:   1    -0.379082671901E+03    0.44870E-04   -0.33658E-02  3920   0.283E-01    0.630E-02
RMM:   2    -0.379082800185E+03   -0.12828E-03   -0.91804E-04  3947   0.438E-02    0.113E-01
RMM:   3    -0.379082747219E+03    0.52965E-04   -0.44837E-05  3986   0.926E-03    0.626E-02
RMM:   4    -0.379083065407E+03   -0.31819E-03   -0.75537E-05  3950   0.945E-03    0.199E-01
RMM:   5    -0.379082814535E+03    0.25087E-03   -0.81851E-05  3931   0.102E-02    0.115E-01
RMM:   6    -0.379082752978E+03    0.61557E-04   -0.37264E-05  3917   0.763E-03    0.531E-02
RMM:   7    -0.379082744380E+03    0.85989E-05   -0.16247E-05  3911   0.504E-03    0.338E-02
RMM:   8    -0.379082740246E+03    0.41336E-05   -0.78048E-06  3798   0.365E-03    0.173E-02
RMM:   9    -0.379082738739E+03    0.15072E-05   -0.16496E-06  2179   0.178E-03    0.709E-03
RMM:  10    -0.379082738648E+03    0.90433E-07   -0.47775E-07  2055   0.952E-04
  33 F= -.41359835E+03 E0= -.41326848E+03  d E =-.548367E-04
       N       E                     dE             d eps       ncg     rms          rms(c)
DAV:   1    -0.379082141455E+03    0.59728E-03   -0.52322E-01  3920   0.124E+00    0.273E-01
RMM:   2    -0.379084494027E+03   -0.23526E-02   -0.18061E-02  3943   0.171E-01    0.395E-01
RMM:   3    -0.379083761710E+03    0.73232E-03   -0.23721E-03  3949   0.594E-02    0.398E-01
RMM:   4    -0.379082997412E+03    0.76430E-03   -0.39396E-04  3973   0.234E-02    0.235E-01
RMM:   5    -0.379083000467E+03   -0.30558E-05   -0.42896E-04  3940   0.249E-02    0.227E-01
RMM:   6    -0.379082897397E+03    0.10307E-03   -0.29504E-04  3944   0.215E-02    0.204E-01
RMM:   7    -0.379082715314E+03    0.18208E-03   -0.17377E-04  3943   0.171E-02    0.103E-01
RMM:   8    -0.379082676404E+03    0.38910E-04   -0.75187E-05  3940   0.110E-02    0.563E-02
RMM:   9    -0.379082659302E+03    0.17102E-04   -0.23997E-05  3926   0.649E-03    0.312E-02
RMM:  10    -0.379082653773E+03    0.55291E-05   -0.60568E-06  3587   0.326E-03    0.154E-02
RMM:  11    -0.379082653012E+03    0.76074E-06   -0.12448E-06  2092   0.153E-03
  34 F= -.41359883E+03 E0= -.41326909E+03  d E =-.484544E-03
       N       E                     dE             d eps       ncg     rms          rms(c)
DAV:   1    -0.379082656490E+03   -0.27169E-05   -0.20201E-03  4060   0.675E-02    0.118E-02
RMM:   2    -0.379082686946E+03   -0.30456E-04   -0.51927E-05  3947   0.106E-02    0.589E-02
RMM:   3    -0.379082665065E+03    0.21881E-04   -0.74195E-06  3673   0.330E-03    0.272E-02
RMM:   4    -0.379082661670E+03    0.33947E-05   -0.30878E-06  2468   0.229E-03    0.174E-02
RMM:   5    -0.379082660322E+03    0.13486E-05   -0.12944E-06  2083   0.160E-03    0.109E-02
RMM:   6    -0.379082659901E+03    0.42105E-06   -0.62542E-07  1996   0.120E-03
  35 F= -.41359884E+03 E0= -.41326909E+03  d E =-.993297E-05
       N       E                     dE             d eps       ncg     rms          rms(c)
DAV:   1    -0.379081201787E+03    0.14585E-02   -0.76739E-01  3920   0.148E+00    0.285E-01
RMM:   2    -0.379084425694E+03   -0.32239E-02   -0.26719E-02  3946   0.206E-01    0.414E-01
RMM:   3    -0.379082869895E+03    0.15558E-02   -0.26222E-03  3959   0.629E-02    0.284E-01
RMM:   4    -0.379084137268E+03   -0.12674E-02   -0.70863E-04  3971   0.307E-02    0.453E-01
RMM:   5    -0.379082870846E+03    0.12664E-02   -0.69016E-04  3948   0.300E-02    0.259E-01
RMM:   6    -0.379082543507E+03    0.32734E-03   -0.30892E-04  3951   0.223E-02    0.166E-01
RMM:   7    -0.379082429887E+03    0.11362E-03   -0.13661E-04  3954   0.154E-02    0.957E-02
RMM:   8    -0.379082419917E+03    0.99699E-05   -0.88292E-05  3940   0.119E-02    0.698E-02
RMM:   9    -0.379082388113E+03    0.31804E-04   -0.33175E-05  3933   0.761E-03    0.327E-02
RMM:  10    -0.379082381438E+03    0.66751E-05   -0.64484E-06  3722   0.339E-03    0.152E-02
RMM:  11    -0.379082380765E+03    0.67325E-06   -0.13275E-06  2075   0.158E-03
  36 F= -.41359829E+03 E0= -.41326839E+03  d E =0.549368E-03
       N       E                     dE             d eps       ncg     rms          rms(c)
DAV:   1    -0.379082548292E+03   -0.16685E-03   -0.60102E-02  3920   0.373E-01    0.678E-02
RMM:   2    -0.379082793620E+03   -0.24533E-03   -0.14240E-03  3945   0.564E-02    0.148E-01
RMM:   3    -0.379082713059E+03    0.80560E-04   -0.91063E-05  3973   0.127E-02    0.102E-01
RMM:   4    -0.379082728215E+03   -0.15155E-04   -0.44037E-05  3962   0.776E-03    0.992E-02
RMM:   5    -0.379082729395E+03   -0.11801E-05   -0.59375E-05  3937   0.955E-03    0.114E-01
RMM:   6    -0.379082671977E+03    0.57418E-04   -0.42729E-05  3924   0.824E-03    0.537E-02
RMM:   7    -0.379082667324E+03    0.46531E-05   -0.19392E-05  3920   0.560E-03    0.388E-02
RMM:   8    -0.379082660724E+03    0.65998E-05   -0.92044E-06  3891   0.398E-03    0.197E-02
RMM:   9    -0.379082658516E+03    0.22080E-05   -0.20002E-06  2212   0.196E-03    0.695E-03
RMM:  10    -0.379082658436E+03    0.80385E-07   -0.60312E-07  2041   0.107E-03
  37 F= -.41359837E+03 E0= -.41326849E+03  d E =-.766390E-04
       N       E                     dE             d eps       ncg     rms          rms(c)
DAV:   1    -0.379082029925E+03    0.62859E-03   -0.52322E-01  3920   0.124E+00    0.270E-01
RMM:   2    -0.379084368529E+03   -0.23386E-02   -0.17987E-02  3943   0.171E-01    0.398E-01
RMM:   3    -0.379083501778E+03    0.86675E-03   -0.23027E-03  3949   0.590E-02    0.379E-01
RMM:   4    -0.379083050547E+03    0.45123E-03   -0.42824E-04  3971   0.243E-02    0.268E-01
RMM:   5    -0.379082965731E+03    0.84816E-04   -0.45732E-04  3942   0.253E-02    0.251E-01
RMM:   6    -0.379082777447E+03    0.18828E-03   -0.28895E-04  3942   0.211E-02    0.198E-01
RMM:   7    -0.379082602375E+03    0.17507E-03   -0.19336E-04  3942   0.181E-02    0.100E-01
RMM:   8    -0.379082566635E+03    0.35740E-04   -0.76344E-05  3943   0.111E-02    0.575E-02
RMM:   9    -0.379082551651E+03    0.14984E-04   -0.23945E-05  3929   0.646E-03    0.369E-02
RMM:  10    -0.379082543874E+03    0.77766E-05   -0.73832E-06  3827   0.357E-03    0.159E-02
RMM:  11    -0.379082542890E+03    0.98434E-06   -0.13898E-06  2090   0.163E-03
  38 F= -.41359883E+03 E0= -.41326907E+03  d E =-.462052E-03
       N       E                     dE             d eps       ncg     rms          rms(c)
DAV:   1    -0.379082558162E+03   -0.14288E-04   -0.25640E-03  4060   0.701E-02    0.140E-02
RMM:   2    -0.379082600374E+03   -0.42211E-04   -0.60538E-05  3943   0.120E-02    0.705E-02
RMM:   3    -0.379082572815E+03    0.27558E-04   -0.11676E-05  3884   0.408E-03    0.392E-02
RMM:   4    -0.379082562247E+03    0.10568E-04   -0.30374E-06  2457   0.232E-03    0.135E-02
RMM:   5    -0.379082561917E+03    0.33033E-06   -0.10913E-06  2044   0.152E-03
  39 F= -.41359886E+03 E0= -.41326910E+03  d E =-.301119E-04
       N       E                     dE             d eps       ncg     rms          rms(c)
DAV:   1    -0.379080981405E+03    0.15808E-02   -0.78217E-01  3920   0.148E+00    0.311E-01
RMM:   2    -0.379084202638E+03   -0.32212E-02   -0.27688E-02  3950   0.210E-01    0.433E-01
RMM:   3    -0.379084605410E+03   -0.40277E-03   -0.30537E-03  3961   0.687E-02    0.542E-01
RMM:   4    -0.379083970576E+03    0.63483E-03   -0.12645E-03  3963   0.397E-02    0.488E-01
RMM:   5    -0.379082436821E+03    0.15338E-02   -0.49858E-04  3943   0.278E-02    0.226E-01
RMM:   6    -0.379082467663E+03   -0.30843E-04   -0.40495E-04  3944   0.254E-02    0.231E-01
RMM:   7    -0.379082240205E+03    0.22746E-03   -0.25809E-04  3940   0.208E-02    0.130E-01
RMM:   8    -0.379082191213E+03    0.48992E-04   -0.10669E-04  3941   0.131E-02    0.819E-02
RMM:   9    -0.379082153314E+03    0.37899E-04   -0.38573E-05  3929   0.818E-03    0.444E-02
RMM:  10    -0.379082141320E+03    0.11995E-04   -0.10897E-05  3907   0.428E-03    0.185E-02
RMM:  11    -0.379082139978E+03    0.13414E-05   -0.19650E-06  2160   0.191E-03    0.118E-02
RMM:  12    -0.379082139852E+03    0.12652E-06   -0.12200E-06  2113   0.154E-03
  40 F= -.41359871E+03 E0= -.41326878E+03  d E =0.151723E-03
       N       E                     dE             d eps       ncg     rms          rms(c)
DAV:   1    -0.379080376502E+03    0.17635E-02   -0.39690E-01  3920   0.905E-01    0.117E-01
RMM:   2    -0.379082063728E+03   -0.16872E-02   -0.72929E-03  3960   0.135E-01    0.374E-01
RMM:   3    -0.379081033785E+03    0.10299E-02   -0.48753E-04  4074   0.294E-02    0.108E-01
RMM:   4    -0.379081306067E+03   -0.27228E-03   -0.22422E-04  3953   0.192E-02    0.208E-01
RMM:   5    -0.379081142863E+03    0.16320E-03   -0.14702E-04  3949   0.152E-02    0.168E-01
RMM:   6    -0.379081038839E+03    0.10402E-03   -0.91354E-05  3941   0.122E-02    0.112E-01
RMM:   7    -0.379080993481E+03    0.45358E-04   -0.70889E-05  3935   0.106E-02    0.602E-02
RMM:   8    -0.379080972237E+03    0.21244E-04   -0.34326E-05  3935   0.750E-03    0.303E-02
RMM:   9    -0.379080966613E+03    0.56239E-05   -0.65381E-06  3704   0.336E-03    0.135E-02
RMM:  10    -0.379080965882E+03    0.73147E-06   -0.14567E-06  2136   0.164E-03
  41 F= -.41359901E+03 E0= -.41326899E+03  d E =-.303195E-03
       N       E                     dE             d eps       ncg     rms          rms(c)
DAV:   1    -0.379080092900E+03    0.87371E-03   -0.52289E-01  3920   0.124E+00    0.268E-01
RMM:   2    -0.379082362087E+03   -0.22692E-02   -0.17888E-02  3943   0.170E-01    0.387E-01
RMM:   3    -0.379081008685E+03    0.13534E-02   -0.21813E-03  3949   0.576E-02    0.270E-01
RMM:   4    -0.379081471854E+03   -0.46317E-03   -0.42998E-04  3969   0.242E-02    0.330E-01
RMM:   5    -0.379081091525E+03    0.38033E-03   -0.49450E-04  3942   0.254E-02    0.259E-01
RMM:   6    -0.379080826641E+03    0.26488E-03   -0.29630E-04  3945   0.216E-02    0.191E-01
RMM:   7    -0.379080666584E+03    0.16006E-03   -0.16496E-04  3943   0.167E-02    0.100E-01
RMM:   8    -0.379080634340E+03    0.32244E-04   -0.69224E-05  3943   0.105E-02    0.586E-02
RMM:   9    -0.379080618800E+03    0.15539E-04   -0.23598E-05  3929   0.640E-03    0.369E-02
RMM:  10    -0.379080610995E+03    0.78050E-05   -0.72807E-06  3820   0.355E-03    0.155E-02
RMM:  11    -0.379080610036E+03    0.95904E-06   -0.13810E-06  2083   0.162E-03
  42 F= -.41359927E+03 E0= -.41326936E+03  d E =-.252561E-03
       N       E                     dE             d eps       ncg     rms          rms(c)
DAV:   1    -0.379080698603E+03   -0.87608E-04   -0.39711E-03  4032   0.887E-02    0.207E-02
RMM:   2    -0.379080724704E+03   -0.26100E-04   -0.94473E-05  3948   0.149E-02    0.550E-02
RMM:   3    -0.379080715217E+03    0.94870E-05   -0.11301E-05  3918   0.437E-03    0.382E-02
RMM:   4    -0.379080706907E+03    0.83098E-05   -0.27579E-06  2425   0.210E-03    0.178E-02
RMM:   5    -0.379080711277E+03   -0.43701E-05   -0.47108E-06  3069   0.284E-03    0.279E-02
RMM:   6    -0.379080707205E+03    0.40724E-05   -0.35468E-06  2594   0.256E-03    0.145E-02
RMM:   7    -0.379080706634E+03    0.57065E-06   -0.14870E-06  2139   0.176E-03
  43 F= -.41359922E+03 E0= -.41326932E+03  d E =0.406994E-04
       N       E                     dE             d eps       ncg     rms          rms(c)
DAV:   1    -0.379079172661E+03    0.15345E-02   -0.76096E-01  3920   0.146E+00    0.317E-01
RMM:   2    -0.379082224029E+03   -0.30514E-02   -0.27231E-02  3946   0.209E-01    0.445E-01
RMM:   3    -0.379082577014E+03   -0.35299E-03   -0.27737E-03  3957   0.664E-02    0.526E-01
RMM:   4    -0.379082351903E+03    0.22511E-03   -0.13116E-03  3957   0.403E-02    0.514E-01
RMM:   5    -0.379080796346E+03    0.15556E-02   -0.72221E-04  3942   0.332E-02    0.296E-01
RMM:   6    -0.379080559344E+03    0.23700E-03   -0.46110E-04  3945   0.272E-02    0.200E-01
RMM:   7    -0.379080396246E+03    0.16310E-03   -0.30084E-04  3941   0.222E-02    0.131E-01
RMM:   8    -0.379080352829E+03    0.43416E-04   -0.11469E-04  3943   0.135E-02    0.938E-02
RMM:   9    -0.379080303627E+03    0.49202E-04   -0.44719E-05  3931   0.876E-03    0.429E-02
RMM:  10    -0.379080289824E+03    0.13803E-04   -0.12111E-05  3908   0.451E-03    0.144E-02
RMM:  11    -0.379080289456E+03    0.36781E-06   -0.22387E-06  2174   0.205E-03
  44 F= -.41359929E+03 E0= -.41326925E+03  d E =-.629177E-04
       N       E                     dE             d eps       ncg     rms          rms(c)
DAV:   1    -0.379079025493E+03    0.12643E-02   -0.19110E-01  3920   0.629E-01    0.943E-02
RMM:   2    -0.379079581195E+03   -0.55570E-03   -0.36481E-03  3970   0.948E-02    0.204E-01
RMM:   3    -0.379079425094E+03    0.15610E-03   -0.24352E-04  4067   0.206E-02    0.128E-01
RMM:   4    -0.379079476284E+03   -0.51191E-04   -0.11306E-04  3960   0.130E-02    0.147E-01
RMM:   5    -0.379079405559E+03    0.70726E-04   -0.94926E-05  3948   0.123E-02    0.126E-01
RMM:   6    -0.379079350467E+03    0.55092E-04   -0.64507E-05  3941   0.102E-02    0.853E-02
RMM:   7    -0.379079333055E+03    0.17411E-04   -0.46590E-05  3937   0.861E-03    0.553E-02
RMM:   8    -0.379079321779E+03    0.11276E-04   -0.21835E-05  3921   0.598E-03    0.345E-02
RMM:   9    -0.379079314315E+03    0.74642E-05   -0.59369E-06  3556   0.319E-03    0.128E-02
RMM:  10    -0.379079313311E+03    0.10037E-05   -0.10662E-06  2085   0.144E-03    0.699E-03
RMM:  11    -0.379079312901E+03    0.41025E-06   -0.13706E-06  2069   0.164E-03
  45 F= -.41359945E+03 E0= -.41326940E+03  d E =-.162433E-03
       N       E                     dE             d eps       ncg     rms          rms(c)
DAV:   1    -0.379078317400E+03    0.99591E-03   -0.52302E-01  3920   0.123E+00    0.269E-01
RMM:   2    -0.379080563357E+03   -0.22460E-02   -0.17961E-02  3943   0.171E-01    0.385E-01
RMM:   3    -0.379079174464E+03    0.13889E-02   -0.21639E-03  3949   0.576E-02    0.257E-01
RMM:   4    -0.379079767732E+03   -0.59327E-03   -0.44600E-04  3966   0.248E-02    0.340E-01
RMM:   5    -0.379079454536E+03    0.31320E-03   -0.52788E-04  3942   0.257E-02    0.286E-01
RMM:   6    -0.379079069542E+03    0.38499E-03   -0.31175E-04  3946   0.219E-02    0.195E-01
RMM:   7    -0.379078902184E+03    0.16736E-03   -0.17420E-04  3942   0.171E-02    0.101E-01
RMM:   8    -0.379078865922E+03    0.36263E-04   -0.73592E-05  3942   0.109E-02    0.573E-02
RMM:   9    -0.379078849986E+03    0.15936E-04   -0.23290E-05  3926   0.639E-03    0.350E-02
RMM:  10    -0.379078843097E+03    0.68887E-05   -0.67917E-06  3759   0.343E-03    0.156E-02
RMM:  11    -0.379078842181E+03    0.91567E-06   -0.13803E-06  2076   0.162E-03
  46 F= -.41359954E+03 E0= -.41326960E+03  d E =-.870831E-04
       N       E                     dE             d eps       ncg     rms          rms(c)
DAV:   1    -0.379078856190E+03   -0.13093E-04   -0.27526E-03  4060   0.733E-02    0.127E-02
RMM:   2    -0.379078873301E+03   -0.17111E-04   -0.55000E-05  3954   0.118E-02    0.394E-02
RMM:   3    -0.379078871381E+03    0.19195E-05   -0.81854E-06  3782   0.352E-03    0.373E-02
RMM:   4    -0.379078860753E+03    0.10628E-04   -0.21347E-06  2287   0.194E-03    0.114E-02
RMM:   5    -0.379078861474E+03   -0.72111E-06   -0.13070E-06  2088   0.163E-03
  47 F= -.41359954E+03 E0= -.41326961E+03  d E =-.573005E-05
       N       E                     dE             d eps       ncg     rms          rms(c)
DAV:   1    -0.379077674601E+03    0.11862E-02   -0.72250E-01  3920   0.143E+00    0.291E-01
RMM:   2    -0.379080504641E+03   -0.28300E-02   -0.25616E-02  3945   0.202E-01    0.399E-01
RMM:   3    -0.379078975679E+03    0.15290E-02   -0.23807E-03  3957   0.620E-02    0.221E-01
RMM:   4    -0.379079975568E+03   -0.99989E-03   -0.70291E-04  3949   0.327E-02    0.400E-01
RMM:   5    -0.379079899473E+03    0.76095E-04   -0.59421E-04  3950   0.261E-02    0.371E-01
RMM:   6    -0.379079046365E+03    0.85311E-03   -0.45841E-04  3938   0.260E-02    0.205E-01
RMM:   7    -0.379078852669E+03    0.19370E-03   -0.25819E-04  3940   0.205E-02    0.112E-01
RMM:   8    -0.379078819121E+03    0.33548E-04   -0.10551E-04  3941   0.130E-02    0.781E-02
RMM:   9    -0.379078785539E+03    0.33581E-04   -0.37010E-05  3928   0.804E-03    0.420E-02
RMM:  10    -0.379078773398E+03    0.12142E-04   -0.10261E-05  3910   0.416E-03    0.139E-02
RMM:  11    -0.379078772821E+03    0.57687E-06   -0.20086E-06  2132   0.195E-03
  48 F= -.41359969E+03 E0= -.41326968E+03  d E =-.150143E-03
       N       E                     dE             d eps       ncg     rms          rms(c)
DAV:   1    -0.379075844106E+03    0.29293E-02   -0.79097E-01  3920   0.131E+00    0.158E-01
RMM:   2    -0.379077405449E+03   -0.15613E-02   -0.15080E-02  3953   0.191E-01    0.215E-01
RMM:   3    -0.379077173577E+03    0.23187E-03   -0.90288E-04  4039   0.416E-02    0.101E-01
RMM:   4    -0.379077635491E+03   -0.46191E-03   -0.32054E-04  3960   0.229E-02    0.270E-01
RMM:   5    -0.379077651053E+03   -0.15562E-04   -0.25387E-04  3958   0.174E-02    0.260E-01
RMM:   6    -0.379077181588E+03    0.46946E-03   -0.16111E-04  3944   0.150E-02    0.124E-01
RMM:   7    -0.379077163173E+03    0.18415E-04   -0.12142E-04  3941   0.140E-02    0.959E-02
RMM:   8    -0.379077124766E+03    0.38407E-04   -0.71489E-05  3938   0.110E-02    0.564E-02
RMM:   9    -0.379077105407E+03    0.19359E-04   -0.18687E-05  3933   0.562E-03    0.201E-02
RMM:  10    -0.379077102610E+03    0.27977E-05   -0.31624E-06  2435   0.245E-03    0.113E-02
RMM:  11    -0.379077101364E+03    0.12461E-05   -0.24234E-06  2161   0.222E-03    0.932E-03
RMM:  12    -0.379077100847E+03    0.51675E-06   -0.19761E-06  2092   0.209E-03
  49 F= -.41359993E+03 E0= -.41327001E+03  d E =-.238715E-03
       N       E                     dE             d eps       ncg     rms          rms(c)
DAV:   1    -0.379075936475E+03    0.11649E-02   -0.52278E-01  3920   0.123E+00    0.269E-01
RMM:   2    -0.379078150696E+03   -0.22142E-02   -0.18041E-02  3943   0.171E-01    0.379E-01
RMM:   3    -0.379076776143E+03    0.13746E-02   -0.21428E-03  3949   0.572E-02    0.249E-01
RMM:   4    -0.379077396787E+03   -0.62064E-03   -0.43197E-04  3967   0.242E-02    0.341E-01
RMM:   5    -0.379076999773E+03    0.39701E-03   -0.52045E-04  3942   0.257E-02    0.267E-01
RMM:   6    -0.379076641888E+03    0.35789E-03   -0.30653E-04  3943   0.220E-02    0.167E-01
RMM:   7    -0.379076523505E+03    0.11838E-03   -0.14658E-04  3944   0.158E-02    0.102E-01
RMM:   8    -0.379076491798E+03    0.31707E-04   -0.63247E-05  3941   0.100E-02    0.611E-02
RMM:   9    -0.379076474398E+03    0.17400E-04   -0.23738E-05  3928   0.642E-03    0.360E-02
RMM:  10    -0.379076467070E+03    0.73282E-05   -0.67869E-06  3759   0.342E-03    0.150E-02
RMM:  11    -0.379076466221E+03    0.84862E-06   -0.14345E-06  2078   0.165E-03
  50 F= -.41359987E+03 E0= -.41327006E+03  d E =0.652163E-04
       N       E                     dE             d eps       ncg     rms          rms(c)
DAV:   1    -0.379076530240E+03   -0.63170E-04   -0.25963E-03  4060   0.777E-02    0.139E-02
RMM:   2    -0.379076550473E+03   -0.20233E-04   -0.62916E-05  3947   0.117E-02    0.454E-02
RMM:   3    -0.379076545159E+03    0.53138E-05   -0.87437E-06  3876   0.368E-03    0.363E-02
RMM:   4    -0.379076535351E+03    0.98077E-05   -0.19333E-06  2256   0.183E-03    0.108E-02
RMM:   5    -0.379076536942E+03   -0.15906E-05   -0.19108E-06  2158   0.191E-03    0.152E-02
RMM:   6    -0.379076535909E+03    0.10327E-05   -0.96120E-07  2037   0.152E-03    0.738E-03
RMM:   7    -0.379076536159E+03   -0.24966E-06   -0.57782E-07  2023   0.110E-03
  51 F= -.41359991E+03 E0= -.41327011E+03  d E =-.401525E-04
       N       E                     dE             d eps       ncg     rms          rms(c)
DAV:   1    -0.379075535612E+03    0.10003E-02   -0.69604E-01  3920   0.141E+00    0.276E-01
RMM:   2    -0.379078254555E+03   -0.27189E-02   -0.24386E-02  3946   0.197E-01    0.372E-01
RMM:   3    -0.379077623476E+03    0.63108E-03   -0.24181E-03  3958   0.609E-02    0.376E-01
RMM:   4    -0.379077204888E+03    0.41859E-03   -0.49528E-04  3974   0.258E-02    0.288E-01
RMM:   5    -0.379076962744E+03    0.24214E-03   -0.49685E-04  3943   0.268E-02    0.236E-01
RMM:   6    -0.379076793523E+03    0.16922E-03   -0.30398E-04  3946   0.220E-02    0.177E-01
RMM:   7    -0.379076676338E+03    0.11719E-03   -0.20091E-04  3943   0.183E-02    0.111E-01
RMM:   8    -0.379076642815E+03    0.33523E-04   -0.90808E-05  3940   0.121E-02    0.744E-02
RMM:   9    -0.379076613914E+03    0.28901E-04   -0.33463E-05  3934   0.762E-03    0.400E-02
RMM:  10    -0.379076602992E+03    0.10922E-04   -0.96664E-06  3906   0.403E-03    0.135E-02
RMM:  11    -0.379076602300E+03    0.69133E-06   -0.17467E-06  2088   0.182E-03
  52 F= -.41360010E+03 E0= -.41327023E+03  d E =-.189020E-03
       N       E                     dE             d eps       ncg     rms          rms(c)
DAV:   1    -0.379073415394E+03    0.31876E-02   -0.95369E-01  3920   0.148E+00    0.163E-01
RMM:   2    -0.379075383811E+03   -0.19684E-02   -0.18636E-02  3960   0.210E-01    0.200E-01
RMM:   3    -0.379077207926E+03   -0.18241E-02   -0.14271E-03  4022   0.487E-02    0.493E-01
RMM:   4    -0.379075516572E+03    0.16914E-02   -0.67733E-04  3963   0.302E-02    0.256E-01
RMM:   5    -0.379075083205E+03    0.43337E-03   -0.20842E-04  3944   0.189E-02    0.124E-01
RMM:   6    -0.379075050054E+03    0.33151E-04   -0.89389E-05  3946   0.121E-02    0.952E-02
RMM:   7    -0.379075059871E+03   -0.98173E-05   -0.12055E-04  3938   0.142E-02    0.933E-02
RMM:   8    -0.379075015109E+03    0.44762E-04   -0.59276E-05  3939   0.999E-03    0.405E-02
RMM:   9    -0.379075005757E+03    0.93520E-05   -0.13740E-05  3928   0.481E-03    0.165E-02
RMM:  10    -0.379075003649E+03    0.21082E-05   -0.29486E-06  2329   0.240E-03    0.111E-02
RMM:  11    -0.379075002800E+03    0.84889E-06   -0.15028E-06  2066   0.188E-03
  53 F= -.41360027E+03 E0= -.41327055E+03  d E =-.173016E-03
       N       E                     dE             d eps       ncg     rms          rms(c)
DAV:   1    -0.379073721382E+03    0.12823E-02   -0.52285E-01  3920   0.123E+00    0.271E-01
RMM:   2    -0.379075975680E+03   -0.22543E-02   -0.18114E-02  3943   0.171E-01    0.389E-01
RMM:   3    -0.379074805380E+03    0.11703E-02   -0.21737E-03  3949   0.579E-02    0.311E-01
RMM:   4    -0.379075054113E+03   -0.24873E-03   -0.45531E-04  3966   0.250E-02    0.319E-01
RMM:   5    -0.379074924829E+03    0.12928E-03   -0.54179E-04  3942   0.264E-02    0.304E-01
RMM:   6    -0.379074483459E+03    0.44137E-03   -0.31466E-04  3943   0.219E-02    0.187E-01
RMM:   7    -0.379074320124E+03    0.16333E-03   -0.21180E-04  3942   0.188E-02    0.965E-02
RMM:   8    -0.379074288487E+03    0.31638E-04   -0.76547E-05  3943   0.111E-02    0.589E-02
RMM:   9    -0.379074272107E+03    0.16379E-04   -0.23882E-05  3929   0.646E-03    0.375E-02
RMM:  10    -0.379074264276E+03    0.78309E-05   -0.72999E-06  3828   0.354E-03    0.160E-02
RMM:  11    -0.379074263240E+03    0.10365E-05   -0.14513E-06  2087   0.166E-03    0.982E-03
RMM:  12    -0.379074263653E+03   -0.41336E-06   -0.78814E-07  2067   0.122E-03
  54 F= -.41360010E+03 E0= -.41327051E+03  d E =0.166600E-03
       N       E                     dE             d eps       ncg     rms          rms(c)
DAV:   1    -0.379073907299E+03    0.35594E-03   -0.54425E-03  4032   0.101E-01    0.240E-02
RMM:   2    -0.379073936761E+03   -0.29462E-04   -0.12177E-04  3946   0.170E-02    0.605E-02
RMM:   3    -0.379073919468E+03    0.17293E-04   -0.78463E-06  3651   0.374E-03    0.342E-02
RMM:   4    -0.379073928634E+03   -0.91661E-05   -0.45578E-06  2952   0.269E-03    0.448E-02
RMM:   5    -0.379073925152E+03    0.34822E-05   -0.87107E-06  3884   0.381E-03    0.423E-02
RMM:   6    -0.379073918262E+03    0.68906E-05   -0.59437E-06  3578   0.307E-03    0.232E-02
RMM:   7    -0.379073916174E+03    0.20878E-05   -0.26512E-06  2365   0.218E-03    0.135E-02
RMM:   8    -0.379073915681E+03    0.49310E-06   -0.11682E-06  2126   0.158E-03
  55 F= -.41359997E+03 E0= -.41327036E+03  d E =0.136760E-03
       N       E                     dE             d eps       ncg     rms          rms(c)
DAV:   1    -0.379074371310E+03   -0.45514E-03   -0.60264E-01  3920   0.131E+00    0.235E-01
RMM:   2    -0.379077335882E+03   -0.29646E-02   -0.20495E-02  3944   0.180E-01    0.429E-01
RMM:   3    -0.379079974105E+03   -0.26382E-02   -0.22520E-03  3958   0.555E-02    0.734E-01
RMM:   4    -0.379075722453E+03    0.42517E-02   -0.10764E-03  3950   0.383E-02    0.224E-01
RMM:   5    -0.379075527891E+03    0.19456E-03   -0.45756E-04  3940   0.269E-02    0.175E-01
RMM:   6    -0.379075467558E+03    0.60333E-04   -0.19892E-04  3944   0.182E-02    0.142E-01
RMM:   7    -0.379075385250E+03    0.82308E-04   -0.95758E-05  3944   0.130E-02    0.780E-02
RMM:   8    -0.379075382911E+03    0.23390E-05   -0.72612E-05  3934   0.110E-02    0.615E-02
RMM:   9    -0.379075362725E+03    0.20185E-04   -0.26050E-05  3920   0.672E-03    0.354E-02
RMM:  10    -0.379075354943E+03    0.77828E-05   -0.64618E-06  3702   0.336E-03    0.126E-02
RMM:  11    -0.379075354128E+03    0.81424E-06   -0.13177E-06  2075   0.160E-03
  56 F= -.41360078E+03 E0= -.41327114E+03  d E =-.810406E-03
       N       E                     dE             d eps       ncg     rms          rms(c)
DAV:   1    -0.379074992519E+03    0.36242E-03   -0.19526E-01  3920   0.707E-01    0.162E-01
RMM:   2    -0.379075909921E+03   -0.91740E-03   -0.52682E-03  3951   0.103E-01    0.305E-01
RMM:   3    -0.379075583840E+03    0.32608E-03   -0.32293E-04  3987   0.228E-02    0.197E-01
RMM:   4    -0.379076011763E+03   -0.42792E-03   -0.34105E-04  3942   0.219E-02    0.292E-01
RMM:   5    -0.379075645678E+03    0.36609E-03   -0.27128E-04  3938   0.203E-02    0.219E-01
RMM:   6    -0.379075431897E+03    0.21378E-03   -0.14850E-04  3942   0.155E-02    0.128E-01
RMM:   7    -0.379075379400E+03    0.52496E-04   -0.77927E-05  3938   0.110E-02    0.736E-02
RMM:   8    -0.379075367590E+03    0.11810E-04   -0.39925E-05  3930   0.808E-03    0.470E-02
RMM:   9    -0.379075353119E+03    0.14471E-04   -0.12744E-05  3907   0.460E-03    0.188E-02
RMM:  10    -0.379075351082E+03    0.20368E-05   -0.19620E-06  2214   0.192E-03    0.727E-03
RMM:  11    -0.379075351434E+03   -0.35110E-06   -0.10145E-06  2090   0.139E-03
  57 F= -.41360096E+03 E0= -.41327142E+03  d E =-.187579E-03
       N       E                     dE             d eps       ncg     rms          rms(c)
DAV:   1    -0.379074069283E+03    0.12818E-02   -0.52277E-01  3920   0.123E+00    0.268E-01
RMM:   2    -0.379076329234E+03   -0.22600E-02   -0.17871E-02  3943   0.170E-01    0.386E-01
RMM:   3    -0.379075981922E+03    0.34731E-03   -0.22614E-03  3949   0.581E-02    0.438E-01
RMM:   4    -0.379074924127E+03    0.10578E-02   -0.43297E-04  3972   0.244E-02    0.232E-01
RMM:   5    -0.379074992296E+03   -0.68169E-04   -0.43580E-04  3941   0.251E-02    0.250E-01
RMM:   6    -0.379074821027E+03    0.17127E-03   -0.28877E-04  3942   0.212E-02    0.192E-01
RMM:   7    -0.379074653965E+03    0.16706E-03   -0.20166E-04  3941   0.184E-02    0.953E-02
RMM:   8    -0.379074623173E+03    0.30791E-04   -0.74460E-05  3942   0.110E-02    0.567E-02
RMM:   9    -0.379074607455E+03    0.15718E-04   -0.23087E-05  3929   0.636E-03    0.342E-02
RMM:  10    -0.379074600814E+03    0.66415E-05   -0.65893E-06  3715   0.338E-03    0.150E-02
RMM:  11    -0.379074599948E+03    0.86606E-06   -0.13209E-06  2088   0.158E-03
  58 F= -.41360088E+03 E0= -.41327146E+03  d E =0.823504E-04
       N       E                     dE             d eps       ncg     rms          rms(c)
DAV:   1    -0.379074669887E+03   -0.69073E-04   -0.26454E-03  4060   0.692E-02    0.160E-02
RMM:   2    -0.379074690390E+03   -0.20503E-04   -0.54168E-05  3944   0.117E-02    0.534E-02
RMM:   3    -0.379074676637E+03    0.13753E-04   -0.82786E-06  3875   0.383E-03    0.243E-02
RMM:   4    -0.379074673994E+03    0.26432E-05   -0.12342E-06  2138   0.147E-03    0.139E-02
RMM:   5    -0.379074675489E+03   -0.14954E-05   -0.17496E-06  2187   0.181E-03    0.181E-02
RMM:   6    -0.379074674106E+03    0.13836E-05   -0.16831E-06  2158   0.184E-03    0.123E-02
RMM:   7    -0.379074673642E+03    0.46389E-06   -0.84749E-07  2018   0.139E-03
  59 F= -.41360086E+03 E0= -.41327144E+03  d E =0.171570E-04
       N       E                     dE             d eps       ncg     rms          rms(c)
DAV:   1    -0.379074172465E+03    0.50164E-03   -0.47009E-01  3920   0.114E+00    0.212E-01
RMM:   2    -0.379075982774E+03   -0.18103E-02   -0.15534E-02  3945   0.160E-01    0.302E-01
RMM:   3    -0.379075486515E+03    0.49626E-03   -0.15226E-03  3956   0.485E-02    0.289E-01
RMM:   4    -0.379075631741E+03   -0.14523E-03   -0.40862E-04  3973   0.234E-02    0.299E-01
RMM:   5    -0.379075124218E+03    0.50752E-03   -0.34305E-04  3946   0.217E-02    0.186E-01
RMM:   6    -0.379074994947E+03    0.12927E-03   -0.16233E-04  3948   0.161E-02    0.124E-01
RMM:   7    -0.379074938691E+03    0.56256E-04   -0.10525E-04  3949   0.134E-02    0.803E-02
RMM:   8    -0.379074928422E+03    0.10269E-04   -0.54429E-05  3942   0.949E-03    0.602E-02
RMM:   9    -0.379074912911E+03    0.15511E-04   -0.20519E-05  3925   0.596E-03    0.333E-02
RMM:  10    -0.379074904798E+03    0.81122E-05   -0.70395E-06  3778   0.348E-03    0.108E-02
RMM:  11    -0.379074904288E+03    0.51084E-06   -0.10403E-06  2038   0.142E-03
  60 F= -.41360108E+03 E0= -.41327159E+03  d E =-.219218E-03
       N       E                     dE             d eps       ncg     rms          rms(c)
DAV:   1    -0.379074290242E+03    0.61456E-03   -0.90982E-02  3920   0.464E-01    0.863E-02
RMM:   2    -0.379074550479E+03   -0.26024E-03   -0.21659E-03  3954   0.688E-02    0.131E-01
RMM:   3    -0.379074711410E+03   -0.16093E-03   -0.20065E-04  3971   0.179E-02    0.180E-01
RMM:   4    -0.379074599353E+03    0.11206E-03   -0.13751E-04  3950   0.132E-02    0.149E-01
RMM:   5    -0.379074503159E+03    0.96194E-04   -0.79658E-05  3940   0.112E-02    0.115E-01
RMM:   6    -0.379074447443E+03    0.55716E-04   -0.47295E-05  3937   0.880E-03    0.588E-02
RMM:   7    -0.379074435650E+03    0.11793E-04   -0.24142E-05  3922   0.629E-03    0.340E-02
RMM:   8    -0.379074435610E+03    0.40149E-07   -0.12609E-05  3914   0.453E-03    0.308E-02
RMM:   9    -0.379074430025E+03    0.55845E-05   -0.46095E-06  3052   0.286E-03    0.121E-02
RMM:  10    -0.379074429017E+03    0.10083E-05   -0.99587E-07  2055   0.143E-03    0.368E-03
RMM:  11    -0.379074429138E+03   -0.12140E-06   -0.37483E-07  2014   0.839E-04
  61 F= -.41360107E+03 E0= -.41327162E+03  d E =0.901032E-05
       N       E                     dE             d eps       ncg     rms          rms(c)
DAV:   1    -0.379073433502E+03    0.99551E-03   -0.52331E-01  3920   0.123E+00    0.271E-01
RMM:   2    -0.379075689022E+03   -0.22555E-02   -0.17954E-02  3943   0.171E-01    0.391E-01
RMM:   3    -0.379074687948E+03    0.10011E-02   -0.22019E-03  3949   0.580E-02    0.344E-01
RMM:   4    -0.379074576954E+03    0.11099E-03   -0.43292E-04  3970   0.243E-02    0.291E-01
RMM:   5    -0.379074488406E+03    0.88548E-04   -0.49963E-04  3942   0.259E-02    0.281E-01
RMM:   6    -0.379074176774E+03    0.31163E-03   -0.30651E-04  3942   0.217E-02    0.193E-01
RMM:   7    -0.379074008272E+03    0.16850E-03   -0.21273E-04  3942   0.189E-02    0.983E-02
RMM:   8    -0.379073974024E+03    0.34248E-04   -0.76805E-05  3943   0.112E-02    0.575E-02
RMM:   9    -0.379073958116E+03    0.15908E-04   -0.23748E-05  3931   0.645E-03    0.354E-02
RMM:  10    -0.379073950946E+03    0.71696E-05   -0.69465E-06  3779   0.347E-03    0.153E-02
RMM:  11    -0.379073950023E+03    0.92331E-06   -0.13675E-06  2081   0.161E-03
  62 F= -.41360119E+03 E0= -.41327186E+03  d E =-.117041E-03
       N       E                     dE             d eps       ncg     rms          rms(c)
DAV:   1    -0.379073895421E+03    0.55526E-04   -0.40003E-03  4004   0.996E-02    0.258E-02
RMM:   2    -0.379073946601E+03   -0.51180E-04   -0.12886E-04  3950   0.159E-02    0.824E-02
RMM:   3    -0.379073907417E+03    0.39184E-04   -0.91597E-06  3823   0.392E-03    0.399E-02
RMM:   4    -0.379073915319E+03   -0.79019E-05   -0.52181E-06  3234   0.288E-03    0.454E-02
RMM:   5    -0.379073913963E+03    0.13560E-05   -0.86730E-06  3860   0.371E-03    0.462E-02
RMM:   6    -0.379073906354E+03    0.76087E-05   -0.64829E-06  3686   0.323E-03    0.259E-02
RMM:   7    -0.379073903364E+03    0.29900E-05   -0.28255E-06  2368   0.227E-03    0.127E-02
RMM:   8    -0.379073903185E+03    0.17875E-06   -0.13214E-06  2147   0.167E-03
  63 F= -.41360126E+03 E0= -.41327192E+03  d E =-.703755E-04
       N       E                     dE             d eps       ncg     rms          rms(c)
DAV:   1    -0.379073030006E+03    0.87336E-03   -0.46378E-01  3920   0.113E+00    0.210E-01
RMM:   2    -0.379074835759E+03   -0.18058E-02   -0.15281E-02  3945   0.159E-01    0.302E-01
RMM:   3    -0.379074591267E+03    0.24449E-03   -0.15411E-03  3956   0.485E-02    0.335E-01
RMM:   4    -0.379074282030E+03    0.30924E-03   -0.39867E-04  3972   0.232E-02    0.259E-01
RMM:   5    -0.379073936113E+03    0.34592E-03   -0.31852E-04  3945   0.214E-02    0.172E-01
RMM:   6    -0.379073843805E+03    0.92308E-04   -0.15388E-04  3947   0.157E-02    0.124E-01
RMM:   7    -0.379073786257E+03    0.57548E-04   -0.10034E-04  3946   0.131E-02    0.782E-02
RMM:   8    -0.379073777082E+03    0.91749E-05   -0.53917E-05  3943   0.945E-03    0.587E-02
RMM:   9    -0.379073762139E+03    0.14944E-04   -0.19862E-05  3923   0.586E-03    0.337E-02
RMM:  10    -0.379073754197E+03    0.79418E-05   -0.67822E-06  3753   0.342E-03    0.110E-02
RMM:  11    -0.379073753635E+03    0.56154E-06   -0.10217E-06  2043   0.141E-03
  64 F= -.41360107E+03 E0= -.41327166E+03  d E =0.189542E-03
       N       E                     dE             d eps       ncg     rms          rms(c)
DAV:   1    -0.379073913553E+03   -0.15936E-03   -0.79679E-03  3948   0.136E-01    0.236E-02
RMM:   2    -0.379073950854E+03   -0.37301E-04   -0.18878E-04  3956   0.204E-02    0.589E-02
RMM:   3    -0.379073946129E+03    0.47245E-05   -0.22280E-05  3953   0.600E-03    0.528E-02
RMM:   4    -0.379073931780E+03    0.14349E-04   -0.70992E-06  3580   0.314E-03    0.320E-02
RMM:   5    -0.379073927913E+03    0.38670E-05   -0.53698E-06  3262   0.293E-03    0.216E-02
RMM:   6    -0.379073925735E+03    0.21783E-05   -0.27993E-06  2292   0.232E-03    0.126E-02
RMM:   7    -0.379073925379E+03    0.35558E-06   -0.17782E-06  2151   0.201E-03
  65 F= -.41360108E+03 E0= -.41327166E+03  d E =-.818324E-05
       N       E                     dE             d eps       ncg     rms          rms(c)
DAV:   1    -0.379073027155E+03    0.89858E-03   -0.52307E-01  3920   0.124E+00    0.268E-01
RMM:   2    -0.379075264022E+03   -0.22369E-02   -0.17954E-02  3943   0.171E-01    0.384E-01
RMM:   3    -0.379073943559E+03    0.13205E-02   -0.21687E-03  3949   0.574E-02    0.273E-01
RMM:   4    -0.379074338526E+03   -0.39497E-03   -0.41685E-04  3968   0.239E-02    0.319E-01
RMM:   5    -0.379074047536E+03    0.29099E-03   -0.48794E-04  3942   0.251E-02    0.265E-01
RMM:   6    -0.379073766775E+03    0.28076E-03   -0.29948E-04  3945   0.216E-02    0.199E-01
RMM:   7    -0.379073594218E+03    0.17256E-03   -0.17011E-04  3943   0.170E-02    0.994E-02
RMM:   8    -0.379073558139E+03    0.36079E-04   -0.73056E-05  3940   0.108E-02    0.548E-02
RMM:   9    -0.379073543144E+03    0.14996E-04   -0.23197E-05  3927   0.638E-03    0.319E-02
RMM:  10    -0.379073537282E+03    0.58619E-05   -0.58354E-06  3522   0.322E-03    0.146E-02
RMM:  11    -0.379073536556E+03    0.72577E-06   -0.13110E-06  2083   0.158E-03
  66 F= -.41360132E+03 E0= -.41327203E+03  d E =-.244496E-03
       N       E                     dE             d eps       ncg     rms          rms(c)
DAV:   1    -0.379073533344E+03    0.39380E-05   -0.24524E-03  4060   0.676E-02    0.122E-02
RMM:   2    -0.379073542689E+03   -0.93452E-05   -0.42896E-05  3938   0.108E-02    0.264E-02
RMM:   3    -0.379073545917E+03   -0.32282E-05   -0.55973E-06  3296   0.303E-03    0.344E-02
RMM:   4    -0.379073536708E+03    0.92088E-05   -0.15255E-06  2129   0.172E-03    0.762E-03
RMM:   5    -0.379073538825E+03   -0.21168E-05   -0.15063E-06  2137   0.174E-03    0.175E-02
RMM:   6    -0.379073537603E+03    0.12219E-05   -0.10716E-06  2081   0.154E-03    0.906E-03
RMM:   7    -0.379073537518E+03    0.85784E-07   -0.72688E-07  2030   0.126E-03
  67 F= -.41360129E+03 E0= -.41327199E+03  d E =0.334473E-04
       N       E                     dE             d eps       ncg     rms          rms(c)
DAV:   1    -0.379072683613E+03    0.85399E-03   -0.49975E-01  3920   0.117E+00    0.289E-01
RMM:   2    -0.379075003244E+03   -0.23196E-02   -0.18460E-02  3945   0.174E-01    0.457E-01
RMM:   3    -0.379076642556E+03   -0.16393E-02   -0.20012E-03  3956   0.554E-02    0.608E-01
RMM:   4    -0.379075385253E+03    0.12573E-02   -0.15243E-03  3943   0.434E-02    0.508E-01
RMM:   5    -0.379074149928E+03    0.12353E-02   -0.77570E-04  3943   0.347E-02    0.373E-01
RMM:   6    -0.379073635072E+03    0.51486E-03   -0.45626E-04  3942   0.273E-02    0.189E-01
RMM:   7    -0.379073468546E+03    0.16653E-03   -0.26343E-04  3942   0.208E-02    0.115E-01
RMM:   8    -0.379073443113E+03    0.25433E-04   -0.11209E-04  3942   0.133E-02    0.881E-02
RMM:   9    -0.379073399261E+03    0.43851E-04   -0.40002E-05  3933   0.825E-03    0.388E-02
RMM:  10    -0.379073387588E+03    0.11673E-04   -0.94317E-06  3901   0.402E-03    0.102E-02
RMM:  11    -0.379073387796E+03   -0.20789E-06   -0.18643E-06  2163   0.187E-03
  68 F= -.41360145E+03 E0= -.41327203E+03  d E =-.161177E-03
