ITEM: TIMESTEP
100
ITEM: NUMBER OF ATOMS
3074
ITEM: BOX BOUNDS pp pp pp
0.0000000000000000e+00 3.8693948398131120e+01
0.0000000000000000e+00 4.4679925159782847e+01
0.0000000000000000e+00 6.0000000000000000e+01
ITEM: ATOMS id type xs ys zs
1 2 0 0 0
1693 2 0.500007 0.375007 0.227906
1675 2 0.499994 0.312515 0.341836
4 2 0.0625 0.03125 0
5 2 0.0208333 0.03125 0.0380245
6 2 0.104167 0.0312499 0.076001
1344 2 0.477871 0.468752 0.417199
1663 2 0.5 0.312499 0.113974
1651 2 0.499998 0.250009 0.341831
10 2 0.0624998 0.0312499 0.113976
11 2 0.0208331 0.0312499 0.151951
12 2 0.104166 0.0312495 0.189927
1343 2 0.395738 0.46875 0.379732
1645 2 0.499997 0.249998 0.227901
1639 2 0.5 0.249999 0.113975
16 2 0.0624991 0.0312495 0.227902
17 2 0.0208325 0.0312495 0.265878
18 2 0.104165 0.0312489 0.303853
1342 2 0.437405 0.46875 0.341714
1621 2 0.499998 0.187498 0.227902
1615 2 0.5 0.187499 0.113975
22 2 0.0624989 0.031249 0.341829
23 2 0.0208327 0.031249 0.379806
24 2 0.104167 0.0312489 0.41783
25 2 0 0.0625 0
26 2 0.0833333 0.0625 0.0380245
27 2 0.0416666 0.0625 0.076001
28 2 0.0625 0.09375 0
29 2 0.0208333 0.09375 0.0380245
30 2 0.104167 0.0937499 0.0760009
31 2 -5.46207e-08 0.0625 0.113976
32 2 0.0833329 0.0624997 0.151951
33 2 0.0416662 0.0624997 0.189927
34 2 0.0624998 0.0937499 0.113976
35 2 0.0208331 0.0937499 0.151951
36 2 0.104166 0.0937492 0.189927
1341 2 0.416283 0.437386 0.417706
38 2 0.0833319 0.0624988 0.265878
39 2 0.0416652 0.0624988 0.303853
40 2 0.062499 0.0937492 0.227902
41 2 0.0208323 0.0937491 0.265878
42 2 0.104164 0.0937478 0.303853
1340 2 0.458152 0.437448 0.379575
44 2 0.0833324 0.0624983 0.379806
45 2 0.0416664 0.0624983 0.41783
46 2 0.062498 0.0937479 0.341829
47 2 0.0208319 0.0937479 0.379806
48 2 0.104167 0.0937476 0.41783
49 2 0 0.125 0
50 2 0.0833333 0.125 0.0380245
51 2 0.0416666 0.125 0.076001
52 2 0.0625 0.15625 0
53 2 0.0208333 0.15625 0.0380245
54 2 0.104166 0.15625 0.0760009
55 2 -3.45186e-08 0.125 0.113976
56 2 0.0833329 0.125 0.151951
57 2 0.0416662 0.125 0.189927
58 2 0.0624998 0.15625 0.113976
59 2 0.0208332 0.15625 0.151951
60 2 0.104166 0.156249 0.189927
1339 2 0.374959 0.437484 0.341776
62 2 0.0833316 0.124998 0.265878
63 2 0.0416647 0.124998 0.303853
64 2 0.0624991 0.156249 0.227902
65 2 0.0208321 0.156249 0.265878
66 2 0.104164 0.156247 0.303853
1338 2 0.47919 0.46875 0.303907
68 2 0.0833314 0.124997 0.379806
69 2 0.0416658 0.124997 0.417831
70 2 0.0624972 0.156247 0.341829
71 2 0.0208312 0.156246 0.379806
72 2 0.104166 0.156246 0.41783
73 2 0 0.1875 0
74 2 0.0833333 0.1875 0.0380245
75 2 0.0416666 0.1875 0.076001
76 2 0.0625 0.21875 0
77 2 0.0208333 0.21875 0.0380245
78 2 0.104167 0.21875 0.0760009
1337 2 0.395819 0.46875 0.265841
80 2 0.083333 0.1875 0.151951
81 2 0.0416663 0.1875 0.189927
82 2 0.0624999 0.21875 0.113976
83 2 0.0208333 0.21875 0.151951
84 2 0.104166 0.218749 0.189927
85 2 -5.04171e-07 0.1875 0.227903
86 2 0.0833315 0.187498 0.265878
87 2 0.0416645 0.187498 0.303853
88 2 0.0624993 0.218749 0.227902
89 2 0.0208324 0.218749 0.265878
90 2 0.104163 0.218746 0.303853
1336 2 0.437503 0.46875 0.227894
92 2 0.0833302 0.187495 0.379806
93 2 0.0416649 0.187495 0.417831
94 2 0.0624969 0.218746 0.341829
95 2 0.0208308 0.218745 0.379806
96 2 0.104164 0.218744 0.417831
97 2 0 0.25 0
98 2 0.0833333 0.25 0.0380245
99 2 0.0416667 0.25 0.076001
100 2 0.0625 0.28125 0
101 2 0.0208334 0.28125 0.0380245
102 2 0.104167 0.28125 0.0760009
1335 2 0.416638 0.437495 0.303794
104 2 0.0833331 0.25 0.151951
105 2 0.0416664 0.25 0.189927
106 2 0.0625 0.28125 0.113976
107 2 0.0208333 0.28125 0.151951
108 2 0.104167 0.28125 0.189927
109 2 -2.38702e-07 0.25 0.227903
110 2 0.0833324 0.249998 0.265878
111 2 0.0416657 0.249998 0.303854
112 2 0.0625001 0.28125 0.227902
113 2 0.0208339 0.281249 0.265878
114 2 0.104166 0.281246 0.303853
115 2 -8.14513e-07 0.249996 0.341829
116 2 0.0833292 0.249993 0.379806
117 2 0.0416641 0.249993 0.417831
118 2 0.0624994 0.281245 0.341829
119 2 0.0208332 0.281244 0.379806
120 2 0.10416 0.281242 0.417831
121 2 0 0.3125 0
122 2 0.0833334 0.3125 0.0380245
123 2 0.0416668 0.3125 0.0760009
124 2 0.0625 0.34375 0
125 2 0.0208335 0.34375 0.0380244
126 2 0.104167 0.34375 0.0760008
127 2 2.22836e-07 0.3125 0.113976
128 2 0.0833335 0.3125 0.151951
129 2 0.0416671 0.3125 0.189927
130 2 0.0625003 0.34375 0.113976
131 2 0.020834 0.34375 0.151951
132 2 0.104168 0.34375 0.189927
133 2 1.07742e-06 0.3125 0.227902
134 2 0.0833348 0.312499 0.265878
135 2 0.0416696 0.312497 0.303853
136 2 0.0625023 0.34375 0.227902
137 2 0.0208382 0.343749 0.265877
138 2 0.104169 0.343747 0.303853
139 2 4.40153e-06 0.312496 0.341829
140 2 0.0833303 0.312493 0.379806
141 2 0.0416639 0.312492 0.417831
142 2 0.0625038 0.343746 0.341828
143 2 0.0208378 0.343744 0.379805
144 2 0.104156 0.343742 0.41783
145 2 0 0.375 0
146 2 0.0833335 0.375 0.0380244
147 2 0.0416671 0.375 0.0760006
148 2 0.0625 0.40625 0
149 2 0.0208338 0.40625 0.0380242
150 2 0.104167 0.40625 0.0760006
151 2 8.80107e-07 0.375 0.113975
152 2 0.0833343 0.375 0.151951
153 2 0.0416688 0.375 0.189926
154 2 0.062501 0.40625 0.113975
155 2 0.0208352 0.40625 0.15195
156 2 0.104169 0.40625 0.189926
157 2 4.67128e-06 0.375 0.2279
158 2 0.0833385 0.374999 0.265877
159 2 0.0416755 0.374998 0.303852
160 2 0.062505 0.40625 0.227901
161 2 0.0208432 0.406249 0.265875
162 2 0.104174 0.406248 0.303852
163 2 1.26336e-05 0.374996 0.341827
164 2 0.0833331 0.374995 0.379805
165 2 0.0416644 0.374994 0.41783
166 2 0.062509 0.406247 0.341827
167 2 0.020843 0.406246 0.379803
168 2 0.104154 0.406245 0.41783
169 2 0 0.4375 0
170 2 0.0833337 0.4375 0.0380242
171 2 0.0416675 0.4375 0.0760003
172 2 0.0625 0.46875 0
173 2 0.0208339 0.46875 0.0380241
174 2 0.104167 0.46875 0.0760004
175 2 1.5847e-06 0.4375 0.113974
176 2 0.0833352 0.4375 0.15195
177 2 0.0416704 0.4375 0.189925
178 2 0.0625013 0.46875 0.113975
179 2 0.0208359 0.46875 0.151949
180 2 0.10417 0.46875 0.189926
181 2 7.91139e-06 0.4375 0.227899
182 2 0.0833418 0.4375 0.265876
183 2 0.0416803 0.437499 0.30385
184 2 0.0625064 0.46875 0.2279
185 2 0.0208455 0.46875 0.265874
186 2 0.104176 0.46875 0.303852
187 2 1.8822e-05 0.437498 0.341824
188 2 0.0833353 0.437498 0.379804
189 2 0.0416651 0.437498 0.417828
190 2 0.0625117 0.46875 0.341826
191 2 0.0208457 0.46875 0.379802
192 2 0.104153 0.46875 0.41783
385 2 0.125 0 0
1597 2 0.499999 0.124999 0.227903
1573 2 0.5 0.0624994 0.227903
388 2 0.1875 0.03125 0
389 2 0.145833 0.0312499 0.0380245
390 2 0.229166 0.0312497 0.0760007
1334 2 0.458344 0.43751 0.265882
1333 2 0.374994 0.437497 0.227881
1332 2 0.479171 0.46875 0.189928
394 2 0.1875 0.0312497 0.113976
395 2 0.145833 0.0312496 0.151951
396 2 0.229166 0.0312492 0.189926
1331 2 0.395833 0.46875 0.151945
1330 2 0.4375 0.46875 0.113973
1329 2 0.416668 0.4375 0.189919
400 2 0.187499 0.0312489 0.227902
401 2 0.145832 0.0312488 0.265878
402 2 0.229165 0.0312482 0.303853
1328 2 0.458335 0.4375 0.151948
1327 2 0.374999 0.4375 0.113971
1326 2 0.479167 0.46875 0.0759995
406 2 0.187499 0.0312484 0.341829
407 2 0.145833 0.0312488 0.379806
408 2 0.229167 0.031249 0.41783
409 2 0.125 0.0625 0
410 2 0.208333 0.0624998 0.0380244
411 2 0.166666 0.0624998 0.0760008
412 2 0.1875 0.09375 0
413 2 0.145833 0.0937499 0.0380244
414 2 0.229166 0.0937495 0.0760006
415 2 0.125 0.0624997 0.113976
416 2 0.208333 0.0624992 0.151951
417 2 0.166666 0.062499 0.189927
418 2 0.187499 0.0937494 0.113975
419 2 0.145833 0.0937493 0.151951
420 2 0.229165 0.0937483 0.189926
421 2 0.124999 0.0624989 0.227902
422 2 0.208331 0.0624976 0.265877
423 2 0.166665 0.0624977 0.303853
424 2 0.187498 0.0937478 0.227902
425 2 0.145831 0.0937477 0.265877
426 2 0.229164 0.093746 0.303853
427 2 0.124998 0.062498 0.341829
428 2 0.208333 0.0624979 0.379806
429 2 0.166667 0.0624983 0.41783
430 2 0.187498 0.0937464 0.341828
431 2 0.145832 0.0937472 0.379806
432 2 0.229168 0.0937476 0.41783
433 2 0.125 0.125 0
434 2 0.208333 0.125 0.0380243
435 2 0.166666 0.125 0.0760007
436 2 0.1875 0.15625 0
437 2 0.145833 0.15625 0.0380244
438 2 0.229166 0.156249 0.0760004
439 2 0.125 0.125 0.113976
440 2 0.208332 0.124999 0.15195
441 2 0.166665 0.124999 0.189926
442 2 0.187499 0.156249 0.113975
443 2 0.145833 0.156249 0.151951
444 2 0.229165 0.156248 0.189926
445 2 0.124998 0.124998 0.227902
446 2 0.20833 0.124996 0.265877
447 2 0.166663 0.124996 0.303853
448 2 0.187498 0.156247 0.227901
449 2 0.145831 0.156247 0.265877
450 2 0.229162 0.156243 0.303852
451 2 0.124997 0.124996 0.341828
452 2 0.208332 0.124995 0.379805
453 2 0.166667 0.124997 0.41783
454 2 0.187496 0.156244 0.341827
455 2 0.14583 0.156245 0.379805
456 2 0.229167 0.156245 0.417829
457 2 0.125 0.1875 0
458 2 0.208333 0.1875 0.0380242
459 2 0.166666 0.1875 0.0760007
460 2 0.1875 0.21875 0
461 2 0.145833 0.21875 0.0380244
462 2 0.229166 0.218749 0.0760002
463 2 0.125 0.1875 0.113976
464 2 0.208332 0.187498 0.15195
465 2 0.166665 0.187498 0.189926
466 2 0.187499 0.218749 0.113975
467 2 0.145833 0.218749 0.151951
468 2 0.229165 0.218747 0.189925
469 2 0.124998 0.187498 0.227902
470 2 0.208329 0.187494 0.265876
471 2 0.166662 0.187494 0.303852
472 2 0.187498 0.218747 0.227901
473 2 0.14583 0.218746 0.265877
474 2 0.22916 0.21874 0.30385
475 2 0.124996 0.187495 0.341828
476 2 0.208329 0.187492 0.379804
477 2 0.166665 0.187494 0.41783
478 2 0.187493 0.21874 0.341826
479 2 0.145828 0.218742 0.379805
480 2 0.229165 0.218742 0.417828
481 2 0.125 0.25 0
482 2 0.208333 0.25 0.0380242
483 2 0.166666 0.25 0.0760007
484 2 0.1875 0.28125 0
485 2 0.145833 0.28125 0.0380244
486 2 0.229166 0.281249 0.0760001
487 2 0.125 0.25 0.113976
488 2 0.208332 0.249998 0.15195
489 2 0.166666 0.249999 0.189926
490 2 0.187499 0.281249 0.113975
491 2 0.145833 0.28125 0.151951
492 2 0.229165 0.281247 0.189924
493 2 0.124999 0.249999 0.227902
494 2 0.208329 0.249993 0.265875
495 2 0.166662 0.249993 0.303851
496 2 0.187499 0.281247 0.227901
497 2 0.145832 0.281247 0.265877
498 2 0.229159 0.281238 0.303848
499 2 0.124995 0.249993 0.341828
500 2 0.208324 0.249987 0.379803
501 2 0.166661 0.249991 0.417829
502 2 0.187491 0.281239 0.341826
503 2 0.145825 0.28124 0.379805
504 2 0.229156 0.281237 0.417827
505 2 0.125 0.3125 0
506 2 0.208333 0.3125 0.0380242
507 2 0.166666 0.3125 0.0760008
508 2 0.1875 0.34375 0
509 2 0.145833 0.34375 0.0380244
510 2 0.229166 0.34375 0.0760001
511 2 0.125 0.3125 0.113976
512 2 0.208333 0.312499 0.15195
513 2 0.166666 0.312499 0.189926
514 2 0.1875 0.34375 0.113975
515 2 0.145834 0.34375 0.151951
516 2 0.229166 0.343747 0.189924
517 2 0.125001 0.312499 0.227902
518 2 0.208331 0.312494 0.265875
519 2 0.166665 0.312494 0.303852
520 2 0.187501 0.343748 0.227901
521 2 0.145835 0.343748 0.265877
522 2 0.229163 0.34374 0.303848
523 2 0.124998 0.312494 0.341828
524 2 0.208316 0.312484 0.379802
525 2 0.166652 0.312488 0.41783
526 2 0.187494 0.343741 0.341826
527 2 0.145824 0.343741 0.379805
528 2 0.229137 0.343731 0.417826
529 2 0.125 0.375 0
530 2 0.208333 0.375 0.0380242
531 2 0.166667 0.375 0.0760008
532 2 0.1875 0.40625 0
533 2 0.145833 0.40625 0.0380244
534 2 0.229166 0.40625 0.0760002
535 2 0.125 0.375 0.113976
536 2 0.208333 0.374999 0.15195
537 2 0.166668 0.374999 0.189926
538 2 0.1875 0.40625 0.113975
539 2 0.145835 0.40625 0.151951
540 2 0.229167 0.406248 0.189924
541 2 0.125003 0.375 0.227902
542 2 0.208335 0.374996 0.265875
543 2 0.166669 0.374996 0.303852
544 2 0.187503 0.406249 0.227901
545 2 0.145838 0.406249 0.265877
546 2 0.229166 0.406245 0.303849
547 2 0.125002 0.374996 0.341828
548 2 0.208315 0.374987 0.379803
549 2 0.166643 0.37499 0.41783
550 2 0.187498 0.406245 0.341827
551 2 0.145826 0.406245 0.379805
552 2 0.229122 0.406236 0.417827
553 2 0.125 0.4375 0
554 2 0.208333 0.4375 0.0380242
555 2 0.166667 0.4375 0.0760007
556 2 0.1875 0.46875 0
557 2 0.145833 0.46875 0.0380243
558 2 0.229166 0.46875 0.0760002
559 2 0.125001 0.4375 0.113975
560 2 0.208334 0.4375 0.15195
561 2 0.166669 0.4375 0.189927
562 2 0.1875 0.46875 0.113975
563 2 0.145835 0.46875 0.151951
564 2 0.229167 0.46875 0.189925
565 2 0.125005 0.4375 0.227901
566 2 0.208336 0.437498 0.265876
567 2 0.166671 0.437498 0.303853
568 2 0.187503 0.46875 0.227901
569 2 0.14584 0.46875 0.265877
570 2 0.229167 0.46875 0.303849
571 2 0.125004 0.437498 0.341828
572 2 0.208318 0.437495 0.379803
573 2 0.16664 0.437496 0.41783
574 2 0.187499 0.46875 0.341827
575 2 0.145827 0.46875 0.379805
576 2 0.229118 0.46875 0.417827
769 2 0.25 0 0
1325 2 0.395833 0.46875 0.0380233
1324 2 0.4375 0.46875 0
772 2 0.3125 0.03125 0
773 2 0.270833 0.0312498 0.0380244
774 2 0.354167 0.0312498 0.0760008
1323 2 0.416666 0.4375 0.0759985
1322 2 0.458334 0.4375 0.0380237
1321 2 0.375 0.4375 0
778 2 0.3125 0.0312497 0.113976
779 2 0.270833 0.0312495 0.151951
780 2 0.354166 0.0312495 0.189927
1320 2 0.479223 0.406445 0.417633
1319 2 0.395724 0.406194 0.379719
1318 2 0.437478 0.406237 0.341745
784 2 0.312499 0.031249 0.227902
785 2 0.270832 0.0312484 0.265878
786 2 0.354167 0.031249 0.303854
1317 2 0.41665 0.375015 0.417773
1316 2 0.458256 0.37498 0.379745
1315 2 0.374969 0.374967 0.341783
790 2 0.3125 0.0312487 0.341829
791 2 0.270834 0.0312488 0.379806
792 2 0.354169 0.0312497 0.417831
793 2 0.25 0.0625 0
794 2 0.333333 0.0624998 0.0380244
795 2 0.291666 0.0624997 0.0760007
796 2 0.3125 0.09375 0
797 2 0.270833 0.0937497 0.0380243
798 2 0.354166 0.0937496 0.0760007
799 2 0.25 0.0624994 0.113975
800 2 0.333333 0.0624994 0.151951
801 2 0.291666 0.0624989 0.189927
802 2 0.3125 0.0937494 0.113975
803 2 0.270833 0.0937489 0.151951
804 2 0.354166 0.0937488 0.189927
805 2 0.249999 0.0624981 0.227902
806 2 0.333332 0.0624981 0.265878
807 2 0.291666 0.0624974 0.303853
808 2 0.312499 0.0937478 0.227902
809 2 0.270831 0.0937465 0.265877
810 2 0.354166 0.0937473 0.303854
811 2 0.249999 0.0624973 0.341828
812 2 0.333335 0.062499 0.379806
813 2 0.291668 0.0624987 0.41783
814 2 0.3125 0.0937469 0.341829
815 2 0.270834 0.093747 0.379806
816 2 0.35417 0.0937496 0.417831
817 2 0.25 0.125 0
818 2 0.333333 0.125 0.0380243
819 2 0.291666 0.124999 0.0760005
820 2 0.3125 0.15625 0
821 2 0.270833 0.15625 0.0380242
822 2 0.354166 0.156249 0.0760005
823 2 0.249999 0.124999 0.113975
824 2 0.333333 0.124999 0.151951
825 2 0.291665 0.124998 0.189926
826 2 0.3125 0.156249 0.113975
827 2 0.270832 0.156248 0.15195
828 2 0.354165 0.156248 0.189926
829 2 0.249998 0.124997 0.227901
830 2 0.333331 0.124996 0.265878
831 2 0.291664 0.124995 0.303853
832 2 0.312498 0.156246 0.227901
833 2 0.27083 0.156244 0.265876
834 2 0.354164 0.156244 0.303853
835 2 0.249997 0.124994 0.341828
836 2 0.333336 0.124997 0.379806
837 2 0.291669 0.124997 0.41783
838 2 0.312498 0.156243 0.341828
839 2 0.270832 0.156244 0.379805
840 2 0.354171 0.15625 0.417831
841 2 0.25 0.1875 0
842 2 0.333333 0.1875 0.0380242
843 2 0.291666 0.187499 0.0760003
844 2 0.3125 0.21875 0
845 2 0.270833 0.21875 0.0380241
846 2 0.354166 0.218749 0.0760002
847 2 0.249999 0.187499 0.113975
848 2 0.333332 0.187498 0.15195
849 2 0.291665 0.187497 0.189925
850 2 0.312499 0.218749 0.113975
851 2 0.270832 0.218748 0.151949
852 2 0.354165 0.218747 0.189925
853 2 0.249997 0.187495 0.2279
854 2 0.333329 0.187493 0.265876
855 2 0.291661 0.18749 0.303851
856 2 0.312497 0.218744 0.227899
857 2 0.270828 0.218741 0.265874
858 2 0.354161 0.21874 0.303851
859 2 0.249994 0.18749 0.341826
860 2 0.333334 0.187494 0.379805
861 2 0.291669 0.187495 0.417829
862 2 0.312493 0.218737 0.341825
863 2 0.270828 0.218738 0.379803
864 2 0.354172 0.218749 0.417829
865 2 0.25 0.25 0
866 2 0.333333 0.25 0.038024
867 2 0.291666 0.249999 0.0759999
868 2 0.3125 0.28125 0
869 2 0.270833 0.28125 0.0380239
870 2 0.354166 0.281249 0.0759997
871 2 0.249999 0.249999 0.113974
872 2 0.333332 0.249998 0.151949
873 2 0.291665 0.249996 0.189924
874 2 0.312499 0.281249 0.113974
875 2 0.270832 0.281248 0.151949
876 2 0.354165 0.281247 0.189922
877 2 0.249997 0.249994 0.227899
878 2 0.333328 0.24999 0.265872
879 2 0.291658 0.249986 0.303847
880 2 0.312497 0.281243 0.227896
881 2 0.270828 0.28124 0.265872
882 2 0.354157 0.281233 0.303843
883 2 0.249989 0.249984 0.341824
884 2 0.333327 0.249987 0.379801
885 2 0.291665 0.249991 0.417826
886 2 0.312484 0.281228 0.341818
887 2 0.270817 0.28123 0.379799
888 2 0.354166 0.281246 0.417821
889 2 0.25 0.3125 0
890 2 0.333333 0.3125 0.0380238
891 2 0.291666 0.312499 0.0759995
892 2 0.3125 0.34375 0
893 2 0.270833 0.34375 0.0380239
894 2 0.354166 0.343749 0.0759991
895 2 0.249999 0.312499 0.113974
896 2 0.333332 0.312498 0.151947
897 2 0.291665 0.312496 0.189922
898 2 0.312499 0.343749 0.113973
899 2 0.270832 0.343748 0.151948
900 2 0.354165 0.343746 0.189918
901 2 0.249998 0.312495 0.227898
902 2 0.333328 0.312488 0.265866
903 2 0.291657 0.312484 0.303842
904 2 0.312497 0.343743 0.227893
905 2 0.27083 0.343741 0.26587
906 2 0.354156 0.343731 0.30383
907 2 0.249986 0.312482 0.341821
908 2 0.333306 0.312473 0.37979
909 2 0.29165 0.312482 0.41782
910 2 0.312478 0.343724 0.341808
911 2 0.270802 0.343724 0.379793
912 2 0.354142 0.343733 0.417804
913 2 0.25 0.375 0
914 2 0.333333 0.375 0.0380235
915 2 0.291666 0.374999 0.0759992
916 2 0.3125 0.40625 0
917 2 0.270833 0.40625 0.0380239
918 2 0.354166 0.40625 0.0759985
919 2 0.249999 0.374999 0.113974
920 2 0.333332 0.374998 0.151945
921 2 0.291665 0.374997 0.189921
922 2 0.312499 0.406249 0.113972
923 2 0.270832 0.406249 0.151948
924 2 0.354164 0.406248 0.189915
925 2 0.25 0.374996 0.227898
926 2 0.333327 0.374989 0.26586
927 2 0.291659 0.374987 0.30384
928 2 0.312497 0.406246 0.227892
929 2 0.270832 0.406245 0.26587
930 2 0.354151 0.406234 0.303821
931 2 0.249988 0.374987 0.341821
932 2 0.333275 0.37496 0.379771
933 2 0.291605 0.374969 0.417813
934 2 0.31248 0.406233 0.341807
935 2 0.270801 0.406233 0.379794
936 2 0.354022 0.406193 0.417784
937 2 0.25 0.4375 0
938 2 0.333333 0.4375 0.0380234
939 2 0.291666 0.4375 0.0759992
940 2 0.3125 0.46875 0
941 2 0.270833 0.46875 0.0380239
942 2 0.354166 0.46875 0.0759983
943 2 0.249999 0.4375 0.113974
944 2 0.333331 0.437499 0.151944
945 2 0.291665 0.437499 0.189921
946 2 0.312499 0.46875 0.113972
947 2 0.270832 0.46875 0.151948
948 2 0.354163 0.46875 0.189914
949 2 0.250001 0.437499 0.227898
950 2 0.333327 0.437496 0.26586
951 2 0.291661 0.437496 0.303841
952 2 0.312497 0.46875 0.227891
953 2 0.270832 0.46875 0.26587
954 2 0.35415 0.46875 0.303821
955 2 0.249992 0.437496 0.341822
956 2 0.333276 0.437485 0.379774
957 2 0.291578 0.437486 0.417814
958 2 0.312482 0.46875 0.341809
959 2 0.270802 0.46875 0.379795
960 2 0.353985 0.46875 0.417788
1153 2 0.375 0 0
1154 2 0.458333 -5.37663e-08 0.0380245
1314 2 0.479202 0.406303 0.30389
1156 2 0.4375 0.03125 0
1157 2 0.395833 0.0312499 0.0380244
1158 2 0.479167 0.0312498 0.076001
1313 2 0.395825 0.406245 0.265846
1312 2 0.437505 0.406255 0.227896
1311 2 0.416663 0.374996 0.303817
1162 2 0.4375 0.0312498 0.113976
1163 2 0.395833 0.0312497 0.151951
1164 2 0.479167 0.0312498 0.189927
1310 2 0.458347 0.37502 0.26588
1309 2 0.374997 0.374995 0.227885
1308 2 0.479171 0.406253 0.189927
1168 2 0.4375 0.0312496 0.227903
1169 2 0.395833 0.0312492 0.265879
1170 2 0.479167 0.0312498 0.303854
1307 2 0.395833 0.40625 0.151945
1172 2 0.458335 6.14521e-07 0.379807
1306 2 0.4375 0.40625 0.113973
1174 2 0.437501 0.0312502 0.34183
1175 2 0.395835 0.0312503 0.379807
1176 2 0.479169 0.031252 0.417831
1177 2 0.375 0.0625 0
1178 2 0.458333 0.0624998 0.0380244
1179 2 0.416667 0.0624997 0.0760009
1180 2 0.4375 0.09375 0
1181 2 0.395833 0.0937498 0.0380244
1182 2 0.479167 0.0937497 0.0760008
1183 2 0.375 0.0624996 0.113976
1184 2 0.458333 0.0624997 0.151951
1185 2 0.416666 0.0624994 0.189927
1186 2 0.4375 0.0937496 0.113976
1187 2 0.395833 0.0937494 0.151951
1188 2 0.479166 0.0937493 0.189927
1189 2 0.374999 0.0624988 0.227902
1190 2 0.458333 0.0624993 0.265879
1191 2 0.416667 0.0624992 0.303855
1192 2 0.437499 0.093749 0.227903
1193 2 0.395833 0.0937481 0.265879
1194 2 0.479167 0.0937497 0.303855
1195 2 0.375001 0.0624991 0.34183
1196 2 0.458336 0.062502 0.379807
1197 2 0.41667 0.0625014 0.417831
1198 2 0.437502 0.0937504 0.341831
1199 2 0.395837 0.0937507 0.379807
1200 2 0.47917 0.0937557 0.417832
1201 2 0.375 0.125 0
1202 2 0.458333 0.125 0.0380244
1203 2 0.416666 0.125 0.0760008
1204 2 0.4375 0.15625 0
1205 2 0.395833 0.15625 0.0380243
1206 2 0.479166 0.156249 0.0760007
1207 2 0.375 0.124999 0.113976
1208 2 0.458333 0.124999 0.151951
1209 2 0.416666 0.124999 0.189927
1210 2 0.4375 0.156249 0.113976
1211 2 0.395833 0.156249 0.151951
1212 2 0.479166 0.156249 0.189927
1213 2 0.374999 0.124998 0.227902
1214 2 0.458333 0.124999 0.265879
1215 2 0.416667 0.124998 0.303855
1216 2 0.437499 0.156248 0.227903
1217 2 0.395831 0.156246 0.265878
1218 2 0.479167 0.15625 0.303855
1219 2 0.375001 0.124998 0.34183
1220 2 0.458338 0.125005 0.379808
1221 2 0.416671 0.125004 0.417832
1222 2 0.437503 0.156251 0.341831
1223 2 0.395838 0.156251 0.379808
1224 2 0.47917 0.156263 0.417833
1225 2 0.375 0.1875 0
1226 2 0.458333 0.1875 0.0380243
1227 2 0.416666 0.1875 0.0760006
1228 2 0.4375 0.21875 0
1229 2 0.395833 0.21875 0.0380243
1230 2 0.479166 0.218749 0.0760004
1231 2 0.375 0.187499 0.113975
1232 2 0.458333 0.187499 0.151951
1233 2 0.416665 0.187499 0.189926
1234 2 0.4375 0.218749 0.113975
1235 2 0.395833 0.218749 0.15195
1236 2 0.479165 0.218748 0.189926
1237 2 0.374998 0.187496 0.227901
1238 2 0.458331 0.187499 0.265879
1239 2 0.416665 0.187497 0.303855
1240 2 0.437498 0.218749 0.227902
1241 2 0.39583 0.218745 0.265877
1242 2 0.479164 0.218752 0.303855
1243 2 0.375 0.187494 0.341829
1244 2 0.458339 0.187509 0.379809
1245 2 0.416673 0.187509 0.417832
1246 2 0.4375 0.218751 0.341831
1247 2 0.395837 0.21875 0.379806
1248 2 0.479171 0.218778 0.417833
1249 2 0.375 0.25 0
1250 2 0.458333 0.25 0.0380242
1251 2 0.416667 0.25 0.0760002
1252 2 0.4375 0.28125 0
1253 2 0.395833 0.28125 0.0380241
1254 2 0.479167 0.281249 0.0759999
1255 2 0.375 0.249999 0.113974
1256 2 0.458333 0.249999 0.151949
1257 2 0.416666 0.249999 0.189925
1258 2 0.4375 0.281249 0.113974
1259 2 0.395833 0.281249 0.151949
1260 2 0.479166 0.281249 0.189924
1261 2 0.374997 0.249995 0.227898
1262 2 0.45833 0.250001 0.265878
1263 2 0.416662 0.249995 0.303852
1264 2 0.437499 0.281251 0.2279
1265 2 0.39583 0.281244 0.265871
1266 2 0.479162 0.281257 0.303854
1267 2 0.374993 0.249987 0.341824
1268 2 0.458338 0.250015 0.379808
1269 2 0.416674 0.250016 0.417829
1270 2 0.437493 0.281248 0.341825
1271 2 0.395827 0.281242 0.379798
1272 2 0.479171 0.281308 0.417831
1273 2 0.375 0.3125 0
1274 2 0.458333 0.3125 0.038024
1275 2 0.416667 0.3125 0.0759996
1276 2 0.4375 0.34375 0
1277 2 0.395833 0.34375 0.0380237
1278 2 0.479167 0.34375 0.0759995
1279 2 0.375 0.312499 0.113973
1280 2 0.458334 0.3125 0.151949
1281 2 0.416668 0.312501 0.189924
1282 2 0.4375 0.34375 0.113973
1283 2 0.395833 0.343749 0.151947
1284 2 0.479169 0.343752 0.189926
1285 2 0.374999 0.312495 0.227893
1286 2 0.458334 0.312506 0.265874
1287 2 0.416659 0.312493 0.303839
1288 2 0.437505 0.343756 0.227899
1289 2 0.395833 0.343745 0.265861
1290 2 0.479166 0.343763 0.303844
1291 2 0.374978 0.312475 0.34181
1292 2 0.458326 0.312515 0.379801
1293 2 0.416667 0.312522 0.417817
1294 2 0.437474 0.343736 0.341798
1295 2 0.39579 0.34372 0.379775
1296 2 0.47916 0.343862 0.417818
1297 2 0.375 0.375 0
1298 2 0.458334 0.375 0.0380238
1299 2 0.416667 0.375 0.075999
1300 2 0.4375 0.40625 0
1301 2 0.395833 0.40625 0.0380234
1302 2 0.479167 0.40625 0.0759995
1303 2 0.375 0.374999 0.113972
1304 2 0.458334 0.375 0.151948
1305 2 0.416668 0.375001 0.189921
578 2 0.208333 0.5 0.0380242
579 2 0.166667 0.5 0.0760007
584 2 0.208334 0.5 0.15195
590 2 0.208336 0.500002 0.265876
591 2 0.166671 0.500002 0.303853
1352 2 0.458335 0.5 0.151948
1353 2 0.416668 0.5 0.189919
1357 2 0.374994 0.500002 0.227881
1358 2 0.458344 0.49999 0.265882
1364 2 0.458152 0.500054 0.379575
193 2 0 0.5 0
194 2 0.0833337 0.5 0.0380242
195 2 0.0416675 0.5 0.0760002
196 2 0.0625 0.53125 0
197 2 0.0208338 0.53125 0.0380242
198 2 0.104167 0.53125 0.0760006
199 2 1.59193e-06 0.5 0.113974
200 2 0.0833352 0.5 0.15195
201 2 0.0416705 0.5 0.189925
202 2 0.062501 0.53125 0.113975
203 2 0.0208353 0.53125 0.15195
204 2 0.104169 0.53125 0.189926
205 2 7.93075e-06 0.5 0.227899
206 2 0.0833418 0.5 0.265876
207 2 0.0416804 0.500001 0.30385
208 2 0.0625051 0.53125 0.227901
209 2 0.0208433 0.531251 0.265875
210 2 0.104174 0.531252 0.303852
211 2 1.88641e-05 0.500002 0.341824
212 2 0.0833353 0.500002 0.379804
213 2 0.0416651 0.500002 0.417828
214 2 0.0625091 0.531253 0.341827
215 2 0.0208431 0.531254 0.379803
216 2 0.104154 0.531255 0.41783
217 2 0 0.5625 0
218 2 0.0833335 0.5625 0.0380244
219 2 0.0416672 0.5625 0.0760006
220 2 0.0625 0.59375 0
221 2 0.0208335 0.59375 0.0380244
222 2 0.104167 0.59375 0.0760008
223 2 8.95096e-07 0.5625 0.113975
224 2 0.0833343 0.5625 0.151951
225 2 0.0416688 0.5625 0.189926
226 2 0.0625003 0.59375 0.113976
227 2 0.020834 0.59375 0.151951
228 2 0.104168 0.59375 0.189927
229 2 4.71638e-06 0.5625 0.2279
230 2 0.0833386 0.562501 0.265877
231 2 0.0416756 0.562502 0.303852
232 2 0.0625024 0.59375 0.227902
233 2 0.0208382 0.593751 0.265877
234 2 0.104169 0.593753 0.303853
235 2 1.27355e-05 0.562504 0.341827
236 2 0.0833331 0.562505 0.379805
237 2 0.0416643 0.562506 0.41783
238 2 0.0625039 0.593754 0.341828
239 2 0.0208378 0.593756 0.379805
240 2 0.104156 0.593758 0.41783
241 2 0 0.625 0
242 2 0.0833334 0.625 0.0380245
243 2 0.0416668 0.625 0.0760009
244 2 0.0625 0.65625 0
245 2 0.0208334 0.65625 0.0380245
246 2 0.104167 0.65625 0.0760009
247 2 2.32502e-07 0.625 0.113976
248 2 0.0833335 0.625 0.151951
249 2 0.0416671 0.625 0.189927
250 2 0.0625 0.65625 0.113976
251 2 0.0208333 0.65625 0.151951
252 2 0.104167 0.65625 0.189927
253 2 1.11636e-06 0.625 0.227902
254 2 0.0833348 0.625001 0.265878
255 2 0.0416696 0.625003 0.303853
256 2 0.0625002 0.65625 0.227902
257 2 0.0208339 0.656251 0.265878
258 2 0.104166 0.656254 0.303853
259 2 4.5066e-06 0.625004 0.341829
260 2 0.0833303 0.625007 0.379806
261 2 0.0416638 0.625008 0.417831
262 2 0.0624994 0.656255 0.341829
263 2 0.0208332 0.656257 0.379806
264 2 0.10416 0.656258 0.417831
265 2 0 0.6875 0
266 2 0.0833333 0.6875 0.0380245
267 2 0.0416667 0.6875 0.076001
268 2 0.0625 0.71875 0
269 2 0.0208333 0.71875 0.0380245
270 2 0.104167 0.71875 0.0760009
1536 2 0.479168 0.96875 0.417831
272 2 0.0833331 0.6875 0.151951
273 2 0.0416664 0.6875 0.189927
274 2 0.0624999 0.71875 0.113976
275 2 0.0208333 0.71875 0.151951
276 2 0.104166 0.718751 0.189927
277 2 -2.1944e-07 0.6875 0.227903
278 2 0.0833324 0.687502 0.265878
279 2 0.0416658 0.687502 0.303854
280 2 0.0624993 0.718751 0.227902
281 2 0.0208325 0.718751 0.265878
282 2 0.104163 0.718754 0.303853
283 2 -7.4762e-07 0.687504 0.341829
284 2 0.0833291 0.687507 0.379806
285 2 0.0416641 0.687507 0.417831
286 2 0.0624969 0.718754 0.341829
287 2 0.0208309 0.718755 0.379806
288 2 0.104164 0.718756 0.417831
289 2 0 0.75 0
290 2 0.0833333 0.75 0.0380245
291 2 0.0416666 0.75 0.076001
292 2 0.0625 0.78125 0
293 2 0.0208333 0.78125 0.0380245
294 2 0.104166 0.78125 0.0760009
1535 2 0.395835 0.96875 0.379806
296 2 0.083333 0.75 0.151951
297 2 0.0416663 0.75 0.189927
298 2 0.0624998 0.78125 0.113976
299 2 0.0208332 0.78125 0.151951
300 2 0.104166 0.781251 0.189927
301 2 -4.98556e-07 0.75 0.227903
302 2 0.0833314 0.750002 0.265878
303 2 0.0416645 0.750002 0.303853
304 2 0.0624991 0.781251 0.227902
305 2 0.0208321 0.781251 0.265878
306 2 0.104164 0.781253 0.303853
1534 2 0.437501 0.96875 0.34183
308 2 0.0833301 0.750005 0.379806
309 2 0.0416649 0.750005 0.417831
310 2 0.0624971 0.781253 0.341829
311 2 0.0208312 0.781254 0.379806
312 2 0.104165 0.781254 0.41783
313 2 0 0.8125 0
314 2 0.0833333 0.8125 0.0380245
315 2 0.0416666 0.8125 0.076001
316 2 0.0625 0.84375 0
317 2 0.0208333 0.84375 0.0380245
318 2 0.104167 0.84375 0.0760009
319 2 -3.42706e-08 0.8125 0.113976
320 2 0.0833329 0.8125 0.151951
321 2 0.0416662 0.8125 0.189927
322 2 0.0624998 0.84375 0.113976
323 2 0.0208331 0.84375 0.151951
324 2 0.104166 0.843751 0.189927
1533 2 0.416669 0.9375 0.417831
326 2 0.0833315 0.812502 0.265878
327 2 0.0416647 0.812502 0.303853
328 2 0.062499 0.843751 0.227902
329 2 0.0208323 0.843751 0.265878
330 2 0.104164 0.843752 0.303853
1532 2 0.458335 0.9375 0.379807
332 2 0.0833313 0.812503 0.379806
333 2 0.0416658 0.812503 0.417831
334 2 0.062498 0.843752 0.341829
335 2 0.0208319 0.843752 0.379806
336 2 0.104166 0.843752 0.41783
337 2 0 0.875 0
338 2 0.0833333 0.875 0.0380245
339 2 0.0416666 0.875 0.076001
340 2 0.0625 0.90625 0
341 2 0.0208333 0.90625 0.0380245
342 2 0.104167 0.90625 0.0760009
343 2 -5.4593e-08 0.875 0.113976
344 2 0.0833329 0.875 0.151951
345 2 0.0416662 0.875 0.189927
346 2 0.0624998 0.90625 0.113976
347 2 0.0208331 0.90625 0.151951
348 2 0.104166 0.90625 0.189927
1531 2 0.375001 0.9375 0.341829
350 2 0.0833318 0.875001 0.265878
351 2 0.0416652 0.875001 0.303853
352 2 0.0624991 0.906251 0.227902
353 2 0.0208325 0.906251 0.265878
354 2 0.104165 0.906251 0.303853
1530 2 0.479167 0.96875 0.303854
356 2 0.0833323 0.875002 0.379806
357 2 0.0416664 0.875002 0.41783
358 2 0.0624988 0.906251 0.341829
359 2 0.0208327 0.906251 0.379806
360 2 0.104167 0.906251 0.41783
361 2 0 0.9375 0
362 2 0.0833333 0.9375 0.0380245
363 2 0.0416666 0.9375 0.076001
364 2 0.0625 0.96875 0
365 2 0.0208333 0.96875 0.0380245
366 2 0.104167 0.96875 0.076001
1529 2 0.395833 0.96875 0.265879
368 2 0.0833329 0.9375 0.151951
369 2 0.0416662 0.9375 0.189927
370 2 0.0624998 0.96875 0.113976
371 2 0.0208331 0.96875 0.151951
372 2 0.104166 0.96875 0.189927
1528 2 0.4375 0.96875 0.227903
374 2 0.0833321 0.9375 0.265878
375 2 0.0416656 0.9375 0.303854
376 2 0.0624992 0.96875 0.227902
377 2 0.0208326 0.96875 0.265878
378 2 0.104165 0.96875 0.303853
1527 2 0.416667 0.9375 0.303854
380 2 0.0833328 0.937501 0.379806
381 2 0.0416667 0.937501 0.41783
382 2 0.0624992 0.96875 0.341829
383 2 0.020833 0.96875 0.379806
384 2 0.104167 0.96875 0.41783
577 2 0.125 0.5 0
1885 2 0.5 0.875001 0.227903
1861 2 0.499999 0.812501 0.227903
580 2 0.1875 0.53125 0