ITEM: TIMESTEP
222
ITEM: NUMBER OF ATOMS
3074
ITEM: BOX BOUNDS pp pp pp
0.0000000000000000e+00 3.8693948398131120e+01
0.0000000000000000e+00 4.4679925159782847e+01
0.0000000000000000e+00 6.0000000000000000e+01
ITEM: ATOMS id type x y z v_stress_xx v_stress_yy v_stress_zz v_stress_xy v_stress_xz v_stress_yz
1 2 0 0 0 2480.96 2482.13 -616.255 0.0216719 1.16022 0.0617788
1693 2 19.3473 16.7554 13.6751 -2488.43 -2861.46 -923.885 -111.89 -275.282 -584.637
1675 2 19.3469 13.9636 20.511 -2639.36 -3369.53 -1546.59 57.8722 -550.436 -885.011
4 2 2.41837 1.39625 0 2481.11 2482.25 -615.665 0.151573 1.23448 0.359087
5 2 0.806103 1.39624 2.28146 -2428.68 -2415.39 3122.7 2.37522 11.2247 1.99735
6 2 4.03058 1.39623 4.56002 -2584.4 -2555.32 137.137 4.70144 11.9255 5.71497
1344 2 18.4912 20.9437 25.0343 48593.3 23467.3 40775.9 -1.53285 19070.2 0.848619
1663 2 19.347 13.9625 6.83865 -2543.79 -2632.36 -90.3821 -13.0456 -26.38 -49.2925
1651 2 19.347 11.1708 20.5102 -2516.96 -3117.06 -313.729 -7.70407 -142.659 -348.771
10 2 2.41832 1.39623 6.83853 -2576.95 -2547 33.4695 6.11083 15.3721 5.424
11 2 0.806051 1.39623 9.11705 -2568.99 -2543.24 27.4338 7.05246 18.1407 4.79842
12 2 4.03053 1.3962 11.3956 -2583.2 -2512.77 24.456 13.9134 19.7444 14.6374
1343 2 15.3127 20.9437 22.785 -3217.05 -2977.83 3295.76 -0.531115 669.311 0.0392883
1645 2 19.347 11.1701 13.6743 -2536.94 -2673.78 -129.205 28.0721 1.90212 -46.1313
1639 2 19.347 11.17 6.83859 -2553.44 -2610.4 -23.8159 1.84837 -3.85323 -7.348
16 2 2.41826 1.39619 13.6741 -2573.99 -2501.8 19.0288 19.1914 23.9092 15.1035
17 2 0.80599 1.39619 15.9526 -2566.94 -2500.65 10.935 23.0702 24.0204 13.8734
18 2 4.03051 1.39615 18.2311 -2606.06 -2460.26 -0.412008 29.0252 17.1129 18.9006
1342 2 16.925 20.9437 20.5042 -709.92 -1132.66 10267.2 -0.305763 2992.28 -0.0825964
1621 2 19.3469 8.37755 13.6742 -2566.43 -2631.4 -66.079 25.5077 5.76059 -16.112
1615 2 19.347 8.37747 6.83859 -2570.54 -2590.89 -17.9582 7.17109 4.83172 3.01807
22 2 2.41826 1.39616 20.5097 -2610.16 -2471.31 96.5312 29.3355 16.2817 13.2641
23 2 0.806018 1.39617 22.7883 -2468.01 -2343.22 3083.45 25.087 12.7676 7.78975
24 2 4.03064 1.39616 25.0697 1739.34 1761.33 -436.647 1.10982 0.387006 0.267051
25 2 0 2.7925 0 2480.87 2482.03 -616.63 0.0741301 1.13431 0.189279
26 2 3.22447 2.79248 2.28145 -2431.01 -2412.36 3127.77 4.99695 11.5877 6.10033
27 2 1.61221 2.79248 4.56002 -2578.66 -2560.91 134.141 5.53317 12.702 4.41912
28 2 2.41837 4.18874 0 2481.04 2482.22 -615.867 0.287867 1.25099 0.660481
29 2 0.806104 4.18874 2.28146 -2428.8 -2417.4 3118.25 4.05235 10.7692 3.58423
30 2 4.03058 4.18871 4.56001 -2583.33 -2557.62 139.798 8.62184 13.0342 10.4815
31 2 -5.00884e-05 2.79248 6.83854 -2571.63 -2558.94 25.8162 5.22941 13.9138 2.52301
32 2 3.22442 2.79245 9.11704 -2577.67 -2534.97 31.6683 13.4571 19.171 13.4172
33 2 1.61215 2.79245 11.3956 -2568.78 -2529.79 25.7266 17.2991 22.7259 13.5293
34 2 2.41832 4.18871 6.83853 -2576.35 -2552.37 33.1681 10.5537 16.0323 9.37039
35 2 0.806057 4.18871 9.11705 -2569.73 -2551.89 25.2604 11.7001 18.0284 7.94706
36 2 4.03052 4.18865 11.3955 -2579.7 -2520.48 32.1665 25.3478 24.9202 27.1535
1341 2 16.1076 19.5426 25.0639 7729.82 5063.52 -1016.17 3617.19 904.146 71.1694
38 2 3.22436 2.79238 15.9526 -2581.46 -2479.72 12.8219 38.6087 26.5656 28.7868
39 2 1.6121 2.79238 18.2311 -2578.18 -2481.65 4.37614 43.4471 24.7596 23.9502
40 2 2.41825 4.18864 13.6741 -2570.14 -2513.93 23.8111 34.1897 28.9468 27.7082
41 2 0.805983 4.18865 15.9526 -2562.69 -2514.39 13.5393 40.737 28.3077 25.9697
42 2 4.03048 4.18854 18.2311 -2588.46 -2451.5 7.46077 59.0915 28.3831 40.6502
1340 2 17.7278 19.5453 22.7763 -5077.92 169.92 28957.7 -1510.46 7979.27 10335
44 2 3.22442 2.79235 22.7883 -2477.38 -2314.37 3082.52 31.9845 11.0251 11.3626
45 2 1.61219 2.79238 25.0697 1739.85 1760.56 -436.857 3.4723 0.630379 0.573026
46 2 2.41822 4.18856 20.5097 -2591.51 -2460.42 98.82 59.2568 22.8165 28.3707
47 2 0.805988 4.18859 22.7883 -2453.58 -2330.17 3082.91 49.8244 14.5426 16.3292
48 2 4.03062 4.18856 25.0697 1740.41 1764.28 -436.803 2.71934 0.52599 0.576462
49 2 0 5.58499 0 2480.77 2481.85 -617.204 0.132331 1.04221 0.287271
50 2 3.22448 5.58497 2.28145 -2429.95 -2414.23 3127.66 7.19858 11.7093 9.00763
51 2 1.61221 5.58497 4.56002 -2578.31 -2565.18 130.818 7.21692 12.2022 6.03017
52 2 2.41837 6.98124 0 2480.98 2482.15 -616.087 0.393288 1.18639 0.849881
53 2 0.806107 6.98123 2.28146 -2428.44 -2420.18 3113.29 4.32811 9.35113 4.55414
54 2 4.03059 6.9812 4.56001 -2581.39 -2561.71 143.617 10.5113 13.8521 13.3149
55 2 -4.28134e-05 5.58497 6.83855 -2573.03 -2565.51 20.9113 6.21903 12.5758 3.15218
56 2 3.22443 5.58493 9.11704 -2576.32 -2544.61 34.9482 18.4355 21.4773 18.7591
57 2 1.61216 5.58492 11.3956 -2569.3 -2544.81 25.9508 22.8241 24.0378 18.4256
58 2 2.41833 6.9812 6.83853 -2575.89 -2560.47 32.3686 11.7366 15.8602 11.0409
59 2 0.806071 6.9812 9.11706 -2572.2 -2564.05 21.7654 12.2196 16.4164 9.02646
60 2 4.03053 6.98112 11.3955 -2576.77 -2535.2 40.9588 29.9034 30.2945 34.2163
1339 2 14.5086 19.5469 20.5073 -2360.79 -2616.37 1114.86 725.414 648.943 -48.6842
62 2 3.22435 5.58481 15.9526 -2569.74 -2491.01 22.2273 56.6685 37.0986 45.8392
63 2 1.61208 5.58481 18.2311 -2563.74 -2490.78 8.65032 63.8665 32.7538 39.2795
64 2 2.41826 6.98111 13.6741 -2568.71 -2535 27.637 38.6122 32.9979 34.6296
65 2 0.805993 6.98112 15.9526 -2562.32 -2537.68 14.1929 45.4505 31.0555 33.989
66 2 4.03044 6.98095 18.2311 -2558.3 -2453.54 21.1801 81.7286 45.9187 63.4678
1338 2 18.5419 20.9437 18.2361 -2802.73 -2398.21 -5157.03 -0.140076 -4087.09 -0.203114
68 2 3.22438 5.58473 22.7882 -2447.3 -2286.23 3082.18 58.911 16.4358 21.4843
69 2 1.61217 5.58478 25.0697 1742.41 1763.87 -437.046 5.7843 0.69809 1.01388
70 2 2.41819 6.98096 20.5096 -2555.63 -2454.57 103.131 82.1788 33.6894 45.4387
71 2 0.805956 6.98099 22.7883 -2418.8 -2314.08 3081.19 67.8235 17.3435 26.1432
72 2 4.03057 6.98093 25.0697 1745.22 1768.26 -437.117 5.68312 0.865475 1.02903
73 2 0 8.37749 0 2480.78 2481.63 -617.575 0.214104 0.805915 0.385029
74 2 3.22448 8.37747 2.28145 -2427.86 -2417.05 3128.66 7.63632 10.6349 10.4957
75 2 1.61222 8.37746 4.56003 -2577.66 -2570.6 128.393 6.48203 10.2855 6.68675
76 2 2.41837 9.77373 0 2481.07 2482.04 -616.023 0.477268 0.935414 0.943043
77 2 0.806113 9.77372 2.28146 -2426.82 -2423.16 3112.41 3.32653 6.25223 5.32181
78 2 4.0306 9.77369 4.56001 -2578.44 -2567.56 149.525 9.56853 12.8959 14.1397
1337 2 15.3159 20.9437 15.9511 -2493.79 -2318.58 1872.41 -0.317517 292.926 -0.277345
80 2 3.22444 8.37741 9.11703 -2575.84 -2557.97 37.7522 18.1022 22.0299 20.3285
81 2 1.61219 8.37741 11.3956 -2573.05 -2563.66 24.495 20.9139 22.3401 19.7125
82 2 2.41835 9.77369 6.83853 -2575.75 -2569.98 33.3332 9.31068 13.3506 11.4428
83 2 0.806097 9.7737 9.11706 -2576.71 -2576.77 20.155 8.7284 11.8907 9.96712
84 2 4.03056 9.77361 11.3955 -2574.64 -2555.46 48.1302 25.4462 31.3539 34.8775
85 2 -7.45045e-05 8.37742 13.6741 -2571.65 -2571.8 13.3201 23.6361 20.351 20.7214
86 2 3.22436 8.37727 15.9526 -2560.34 -2516.51 30.8145 57.1547 45.5229 55.8355
87 2 1.61209 8.37727 18.2311 -2551.27 -2512.57 11.3383 64.2773 39.0852 50.977
88 2 2.41831 9.77361 13.6741 -2571.42 -2561.2 28.6287 29.8698 30.8683 35.5864
89 2 0.806044 9.77361 15.9526 -2569.91 -2565.61 11.6072 33.5494 27.0326 37.7614
90 2 4.03046 9.77339 18.231 -2523.29 -2482.01 36.9998 77.0364 61.1671 78.8361
1336 2 16.9288 20.9437 13.6745 -2584.03 -2639.99 -237.913 -0.162507 -692.804 -0.273775
92 2 3.22432 8.3771 22.7882 -2372.98 -2261.27 3084.52 85.7589 26.9889 35.4824
93 2 1.61214 8.37717 25.0697 1751.01 1766.92 -437.381 7.60557 0.847786 1.47744
94 2 2.4182 9.77338 20.5096 -2503.29 -2468.52 109.254 76.7936 44.3282 61.2017
95 2 0.805968 9.7734 22.7883 -2349.12 -2305.8 3078.98 59.5346 20.1628 36.9265
96 2 4.03048 9.7733 25.0697 1759.45 1770.89 -437.535 11.5558 1.56567 1.76235
97 2 0 11.17 0 2481.08 2481.47 -617.179 0.333565 0.358223 0.529286
98 2 3.22449 11.17 2.28145 -2424.05 -2420.46 3134.18 6.25837 7.35831 10.8056
99 2 1.61224 11.17 4.56002 -2576.14 -2576.34 131.8 3.84022 6.06101 7.42143
100 2 2.41837 12.5662 0 2481.48 2481.97 -615.208 0.546086 0.41568 0.975891
101 2 0.806124 12.5662 2.28146 -2423.03 -2425.96 3121.8 1.63058 0.876918 6.32194
102 2 4.03061 12.5662 4.56 -2573.37 -2574.43 161.053 6.04172 8.60166 13.6928
1335 2 16.1214 19.5474 18.2286 -2471.27 -2013.97 3851.24 -44.5737 775.286 744.711
104 2 3.22448 11.1699 9.11702 -2575.26 -2572.68 42.7287 12.0626 18.0196 20.0472
105 2 1.61223 11.1699 11.3956 -2578.26 -2581.88 25.7056 12.0043 14.9627 20.6505
106 2 2.41838 12.5662 6.83852 -2574.01 -2579.38 41.872 4.1098 6.79676 12.3048
107 2 0.80614 12.5662 9.11704 -2580.46 -2587.69 28.0587 2.15932 2.59395 13.2278
108 2 4.03063 12.5661 11.3955 -2567.91 -2577.12 57.8968 12.1241 22.9501 32.1766
109 2 -1.28704e-05 11.1699 13.6741 -2584.45 -2592.43 12.4324 12.1934 10.2449 24.2387
110 2 3.22444 11.1698 15.9525 -2552.7 -2552.13 35.8739 34.2893 41.4902 55.1208
111 2 1.61218 11.1698 18.2311 -2540.79 -2543.48 12.4406 33.5905 33.4172 55.7773
112 2 2.4184 12.5661 13.674 -2568.68 -2586.02 34.8958 9.57435 17.0597 35.0641
113 2 0.80616 12.5661 15.9526 -2571.69 -2590.16 16.2367 5.37407 9.30406 41.3938
114 2 4.03057 12.5659 18.231 -2479.92 -2535.52 47.8447 31.1993 53.9378 74.9207
115 2 -7.53057e-05 11.1697 20.5097 -2529.02 -2521.65 93.9266 27.8608 19.9984 53.4165
116 2 3.2243 11.1695 22.7882 -2235.95 -2270.94 3092.08 90.8261 43.4849 53.3054
117 2 1.61212 11.1696 25.0697 1771.56 1765.88 -437.787 7.89121 1.30545 1.84277
118 2 2.41832 12.5659 20.5096 -2426.28 -2510.05 117.461 19.471 38.1519 67.8919
119 2 0.806092 12.5658 22.7882 -2219.72 -2324.3 3082.96 -3.45665 16.7603 48.3427
120 2 4.03032 12.5657 25.0696 1789.24 1768.04 -437.903 21.3724 3.2083 2.70818
121 2 0 13.9625 0 2481.81 2481.5 -615.486 0.462362 -0.342092 0.70574
122 2 3.2245 13.9625 2.28145 -2417.6 -2424.01 3148.85 3.611 1.05689 10.1764
123 2 1.61226 13.9625 4.56001 -2572.11 -2581.96 147.459 0.312382 -1.63277 8.80896
124 2 2.41837 15.3587 0 2482.28 2482.02 -613.31 0.555136 -0.400295 0.919077
125 2 0.806137 15.3587 2.28145 -2416.32 -2428.59 3145.85 0.00250603 -7.26032 7.07296
126 2 4.03064 15.3587 4.55998 -2564.47 -2581.27 181.795 1.46063 -0.328343 12.1087
127 2 2.82679e-05 13.9625 6.83852 -2578.49 -2587.03 39.3252 -2.11922 -5.69351 10.6677
128 2 3.22453 13.9624 9.11699 -2568.58 -2586.31 57.6049 2.10648 5.99294 19.8912
129 2 1.61232 13.9624 11.3955 -2575.23 -2596.79 41.3691 -2.23173 -2.77566 23.6344
130 2 2.41842 15.3587 6.83849 -2566.34 -2587.78 64.8037 -1.96958 -6.16571 13.4033
131 2 0.806204 15.3587 9.11699 -2575.29 -2596.41 57.0137 -5.93454 -15.6491 18.1322
132 2 4.03072 15.3586 11.3954 -2541.61 -2596.7 80.3576 -5.25077 -1.42327 27.7131
133 2 9.72646e-05 13.9624 13.674 -2587.49 -2607.71 30.1517 -7.6608 -13.2467 31.608
134 2 3.22459 13.9623 15.9525 -2513.35 -2588.33 50.9316 -5.95696 13.3059 49.7083
135 2 1.61238 13.9623 18.231 -2477.18 -2577.52 30.4019 -27.2795 -1.85718 56.8978
136 2 2.41854 15.3586 13.674 -2530.62 -2607.53 63.862 -18.3886 -20.9242 33.9756
137 2 0.806371 15.3586 15.9525 -2508.83 -2612.15 55.8249 -41.4072 -45.7815 45.4507
138 2 4.03076 15.3584 18.2309 -2397.99 -2595.58 59.835 -16.9977 19.5545 59.1876
139 2 0.000178521 13.9622 20.5096 -2416.57 -2544.48 113.421 -62.0692 -17.0019 63.0306
140 2 3.22435 13.962 22.7881 -2093.09 -2337.69 3094.49 49.7242 52.7588 65.1306
141 2 1.61212 13.9621 25.0697 1798.87 1758.55 -438.13 6.19691 2.06836 2.31461
142 2 2.41855 15.3584 20.5095 -2303.71 -2572.77 129.762 -41.4574 5.87892 62.3557
143 2 0.806319 15.3584 22.7881 -2042.41 -2383.07 3091.37 -65.5686 -3.05783 53.7352
144 2 4.03016 15.3583 25.0696 1822.92 1758.06 -438.165 22.401 5.87348 3.16514
145 2 0 16.755 0 2482.92 2481.75 -612.573 0.476005 -1.26488 0.735675
146 2 3.22451 16.755 2.28143 -2408.59 -2427.2 3173.12 0.979316 -8.01316 8.03971
147 2 1.61229 16.755 4.55998 -2563.79 -2587.14 177.37 -2.30639 -13.5801 9.09753
148 2 2.41837 18.1512 0 2483.26 2482.18 -610.861 0.389572 -1.33007 0.622716
149 2 0.806152 18.1512 2.28143 -2408.04 -2430.88 3177.98 -0.618359 -16.8941 5.48017
150 2 4.03067 18.1512 4.55995 -2552.49 -2586.69 207.606 -1.28741 -12.5315 7.79575
151 2 7.25975e-05 16.755 6.83847 -2571.48 -2592.7 79.7922 -4.96326 -22.3 14.195
152 2 3.22461 16.7549 9.11694 -2546.71 -2597.63 88.6644 -7.21191 -18.0788 17.517
153 2 1.61243 16.7549 11.3954 -2542.43 -2608.85 85.833 -17.3985 -41.488 24.1964
154 2 2.41847 18.1512 6.83844 -2550.29 -2594.26 99.4976 -4.91617 -25.6944 10.3192
155 2 0.806279 18.1512 9.11692 -2551.01 -2603.07 109.562 -10.4999 -47.8224 16.1645
156 2 4.03082 18.1512 11.3954 -2498.56 -2612.39 111.344 -11.8803 -35.963 17.5555
157 2 0.000272864 16.7549 13.6739 -2531.91 -2620.32 96.355 -35.5644 -75.2106 36.5213
158 2 3.22479 16.7548 15.9524 -2426.05 -2623.72 79.9122 -34.3234 -40.5471 38.2485
159 2 1.61266 16.7548 18.2309 -2336.76 -2620.55 66.356 -69.1544 -71.9615 48.7858
160 2 2.4187 18.1512 13.6739 -2458.86 -2626.91 109.248 -27.072 -76.7793 23.796
161 2 0.806616 18.1512 15.9523 -2381.65 -2638.38 120.479 -54.8143 -132.226 34.8013
162 2 4.03095 18.1511 18.2308 -2298.63 -2647.1 71.0441 -28.3854 -26.2187 33.6379
163 2 0.000544691 16.7548 20.5094 -2196.16 -2597.86 149.377 -120.823 -94.7751 60.466
164 2 3.22447 16.7546 22.788 -1980.19 -2425.52 3094.31 8.70166 48.7052 56.0119
165 2 1.61214 16.7547 25.0696 1823.68 1749.66 -438.33 3.61227 2.70305 2.36748
166 2 2.41878 18.151 20.5094 -2169.88 -2636.24 140.675 -49.268 -39.5466 39.1922
167 2 0.806545 18.151 22.788 -1875.84 -2454.93 3096.15 -64.6864 -35.4747 38.7008
168 2 4.03005 18.1509 25.0695 1847.68 1748.27 -438.327 13.663 8.23305 2.19977
169 2 0 19.5475 0 2483.88 2482.03 -609.992 0.220182 -2.03543 0.349896
170 2 3.22452 19.5475 2.28142 -2400.58 -2429.23 3195.14 -0.104916 -16.2288 3.2525
171 2 1.61231 19.5475 4.55996 -2554.04 -2590.63 207.123 -1.74055 -25.9718 4.30863
172 2 2.41837 20.9437 0 2483.76 2482.28 -609.612 0.00436564 -1.80736 0.00776381
173 2 0.806158 20.9437 2.28142 -2403.62 -2431.85 3194.77 -0.0104387 -22.1805 0.0391403
174 2 4.03068 20.9437 4.55994 -2546.2 -2588.9 220.437 -0.0260967 -18.9465 0.0299262
175 2 0.000112 19.5475 6.83842 -2557.61 -2596.46 125.486 -3.52975 -43.0529 7.53068
176 2 3.22467 19.5475 9.11689 -2521.34 -2605.03 119.228 -5.39156 -42.3874 7.49317
177 2 1.61252 19.5475 11.3954 -2498.08 -2617.86 133.839 -11.794 -83.3254 11.2466
178 2 2.41849 20.9437 6.83842 -2540.49 -2596.98 118.149 -0.11087 -36.6257 -0.0261595
179 2 0.806317 20.9437 9.11688 -2533.85 -2606.15 139.901 -0.185151 -67.299 -0.0508154
180 2 4.03087 20.9437 11.3953 -2475.74 -2619 126.794 -0.278342 -53.4609 -0.108432
181 2 0.00043237 19.5475 13.6738 -2448.33 -2632.82 172.644 -24.1545 -147.987 18.1268
182 2 3.22494 19.5474 15.9523 -2343.85 -2649.51 104.938 -20.2004 -88.6422 14.9954
183 2 1.61287 19.5474 18.2308 -2206.24 -2657.48 96.1171 -37.9091 -136.049 20.3159
184 2 2.41877 20.9437 13.6738 -2419.47 -2635.96 132.482 -0.341336 -105.665 -0.10104
185 2 0.806731 20.9437 15.9523 -2311.03 -2652.58 153.531 -0.303909 -177.979 -0.0768967
186 2 4.03103 20.9437 18.2308 -2251.97 -2668.43 75.6963 -0.50275 -48.0484 -0.118573
187 2 0.000826623 19.5474 20.5092 -2001.3 -2653.07 175.166 -63.1039 -168.639 26.6745
188 2 3.22456 19.5473 22.788 -1915.86 -2485.67 3094.05 -2.78685 39.1911 22.229
189 2 1.61216 19.5474 25.0695 1838.37 1744.32 -438.427 1.13126 2.91797 1.06828
190 2 2.41887 20.9437 20.5093 -2109.41 -2664.04 144.798 -0.363968 -61.8169 -0.0846365
191 2 0.806641 20.9437 22.7879 -1805.42 -2487.73 3096.89 -0.0826845 -52.5714 -0.0612023
192 2 4.03002 20.9437 25.0694 1856.59 1744.43 -438.389 -0.0666235 9.10456 -0.00827931
385 2 4.83674 0 0 2481.22 2482.02 -615.925 0.118812 1.02546 0.260981
1597 2 19.347 5.58502 13.6742 -2576.74 -2613.06 -44.3854 17.4375 0.782579 -7.4462
1573 2 19.347 2.79251 13.6742 -2579.09 -2605.51 -36.2069 9.65962 -3.15498 -4.41003
388 2 7.25512 1.39625 0 2481.14 2481.53 -617.139 0.268451 0.634772 0.52542
389 2 5.64285 1.39624 2.28146 -2435.2 -2412.97 3122.67 3.15545 9.07028 5.49984
390 2 8.86734 1.39623 4.56004 -2593.65 -2568.87 108.934 0.192442 2.1137 4.99959
1334 2 17.7352 19.548 15.9541 -2681.17 -2744.27 -1303.98 -224.906 -1546.04 -551.787
1333 2 14.5101 19.5475 13.6731 -2546.6 -2471.76 952.742 -17.0029 81.9108 79.3745
1332 2 18.5411 20.9437 11.3965 -2495.09 -2646.36 -843.536 -0.0573665 -385.796 -0.169392
394 2 7.25508 1.39622 6.83854 -2593.52 -2550.64 18.4615 3.18943 5.94263 8.74596
395 2 5.6428 1.39621 9.11705 -2590.5 -2530.68 24.2354 8.15423 12.742 12.351
396 2 8.86732 1.3962 11.3956 -2609.15 -2538.98 -5.87997 1.94448 -1.86978 13.0836
1331 2 15.3165 20.9437 9.11688 -2565 -2616.77 176.208 -0.0700789 -170.327 -0.0417482
1330 2 16.9288 20.9437 6.83866 -2547.37 -2628.34 -107.004 -0.0140429 -156.095 0.0726572
1329 2 16.1226 19.5475 11.3955 -2576.54 -2639.83 72.6649 -39.9938 -329.126 -35.886
400 2 7.25504 1.39618 13.6741 -2611.1 -2501.29 2.16579 11.8478 6.23336 19.6199
401 2 5.64277 1.39616 15.9526 -2608.44 -2471.23 3.05405 22.4127 13.7255 21.7723
402 2 8.86737 1.39616 18.2312 -2643.73 -2498.11 -18.7225 1.27104 -13.5363 10.329
1328 2 17.7349 19.5475 9.11741 -2531.53 -2648.87 -336.54 -24.3742 -244.153 -57.457
1327 2 14.5103 19.5475 6.83836 -2569.09 -2605.41 189.448 -10.9786 -87.9139 1.26662
1326 2 18.541 20.9437 4.56018 -2543.3 -2612.95 -72.4454 0.0037713 -76.8057 0.144949
406 2 7.25512 1.39615 20.5097 -2650.43 -2473.92 90.5585 7.93323 -4.4448 9.04275
407 2 5.64288 1.39615 22.7883 -2497.53 -2322.94 3083.25 9.37231 2.48644 5.20221
408 2 8.8675 1.39619 25.0698 1740.52 1756.18 -436.168 -2.75301 -0.582777 -0.223381
409 2 4.83674 2.7925 0 2481.23 2482.13 -615.68 0.365527 1.11115 0.79834
410 2 8.06123 2.79248 2.28146 -2438.23 -2418.93 3110.64 2.34557 5.28383 7.50115
411 2 6.44896 2.79247 4.56002 -2590.25 -2558.19 132.016 4.98691 8.67015 10.1327
412 2 7.25512 4.18874 0 2481.29 2481.79 -616.265 0.552984 0.776276 1.09977
413 2 5.64285 4.18872 2.28145 -2434.24 -2412.58 3128.84 6.2604 10.1985 10.7632
414 2 8.86734 4.18871 4.56003 -2594.53 -2567.18 121.699 0.796357 3.28548 11.2736
415 2 4.83669 2.79246 6.83853 -2584.97 -2544.69 34.298 9.11901 13.7908 12.3509
416 2 8.06119 2.79244 9.11706 -2599.94 -2543.15 14.1507 4.59001 4.85336 17.6286
417 2 6.44891 2.79241 11.3956 -2597.22 -2515.43 21.3222 15.7406 14.3053 25.5479
418 2 7.25507 4.18869 6.83853 -2593 -2549.97 31.5039 6.59742 9.0555 18.0263
419 2 5.6428 4.18867 9.11703 -2588.14 -2533.41 35.1432 15.4868 17.3223 23.8293
420 2 8.86731 4.18865 11.3956 -2609.15 -2531.91 14.6775 5.4415 4.63505 31.0164
421 2 4.83663 2.79239 13.6741 -2589.67 -2491.93 20.2833 28.3856 22.8244 29.6669
422 2 8.06118 2.79236 15.9526 -2624.51 -2481.56 -3.52341 17.3792 3.00615 30.4561
423 2 6.44891 2.79233 18.2311 -2623.05 -2449.81 -2.44627 32.3788 10.3814 29.8587
424 2 7.25502 4.1886 13.6741 -2605.43 -2493.01 21.7313 25.8289 17.6688 43.5739
425 2 5.64274 4.18856 15.9526 -2596.1 -2463.29 17.5501 46.5183 27.0126 47.0899
426 2 8.86732 4.18855 18.2312 -2637.46 -2452.85 -6.56087 15.3452 -1.78302 34.6942
427 2 4.83666 2.79233 20.5097 -2624.29 -2447 95.5006 37.3826 12.7655 21.4077
428 2 8.06131 2.79236 22.7883 -2505.41 -2330.7 3082.4 -9.38047 -8.09632 2.61044
429 2 6.44906 2.79237 25.0697 1739.69 1761.9 -436.484 -0.599196 -0.0139234 0.163538
430 2 7.25507 4.18851 20.5097 -2636.26 -2427.68 94.6414 29.7704 4.96108 27.9328
431 2 5.64284 4.18852 22.7882 -2483.44 -2287.17 3082 28.5406 6.84338 14.2553
432 2 8.86749 4.18861 25.0698 1739.65 1759.03 -436.381 -4.66768 -0.709272 -0.187387
433 2 4.83674 5.58499 0 2481.26 2482.31 -615.223 0.575364 1.22902 1.24333
434 2 8.06123 5.58497 2.28145 -2437.46 -2416.57 3125.64 4.29612 6.64929 13.1339
435 2 6.44896 5.58495 4.56001 -2589.05 -2558.42 144.141 8.00661 11.1426 16.3209
436 2 7.25512 6.98124 0 2481.56 2482.24 -614.75 0.821492 0.973956 1.65796
437 2 5.64285 6.98121 2.28145 -2431.98 -2412.76 3138.66 8.59276 11.3374 14.8906
438 2 8.86734 6.98119 4.56001 -2594.72 -2564.95 145.663 1.67401 5.72934 18.499
439 2 4.83669 5.58493 6.83852 -2583.09 -2549.01 41.9698 13.2999 16.6691 18.3396
440 2 8.06119 5.5849 9.11703 -2598.97 -2540.98 37.6188 7.92962 11.0715 31.3351
441 2 6.44891 5.58486 11.3955 -2592.36 -2517.62 41.8826 24.6951 23.9873 42.1093
442 2 7.25507 6.98116 6.8385 -2591.26 -2550.65 52.7626 9.35915 14.0113 26.3584
443 2 5.6428 6.98114 9.11701 -2584.9 -2540.31 50.3981 19.6167 23.277 31.7515
444 2 8.8673 6.98109 11.3955 -2606.57 -2525.89 53.8115 9.34824 16.4853 52.9743
445 2 4.83662 5.58483 13.674 -2581.21 -2500.05 35.4653 42.5543 33.9939 47.2043
446 2 8.06113 5.58476 15.9526 -2611.4 -2455.33 25.3272 37.7084 23.0729 64.5254
447 2 6.44886 5.5847 18.2311 -2596.67 -2420.25 15.7145 64.333 30.7515 61.4556
448 2 7.25501 6.98102 13.674 -2594.09 -2491.39 55.8023 37.9632 35.8763 68.9751
449 2 5.64272 6.98097 15.9525 -2575 -2466.43 41.9226 65.1803 47.1963 72.6591
450 2 8.86724 6.9809 18.231 -2608.2 -2392.58 28.7844 51.1101 28.0655 83.1741
451 2 4.8366 5.5847 20.5096 -2590.87 -2416.37 102.249 71.8785 26.7356 43.3186
452 2 8.06125 5.58473 22.7882 -2492.99 -2266.62 3081.44 8.03402 -2.3671 15.8659
453 2 6.44903 5.58475 25.0697 1740.95 1766.17 -436.762 0.680528 0.221275 0.520875
454 2 7.25498 6.98085 20.5096 -2587.96 -2364.81 111.331 76.1924 29.583 64.2483
455 2 5.64276 6.98087 22.7882 -2433.54 -2234.87 3084.28 67.0378 19.0838 31.1044
456 2 8.86744 6.98101 25.0697 1739.39 1765.73 -436.642 -3.58419 -0.622174 0.492062
457 2 4.83674 8.37749 0 2481.36 2482.49 -614.552 0.723514 1.25848 1.52136
458 2 8.06123 8.37746 2.28144 -2434.62 -2414.21 3149.83 6.2499 8.38637 18.4602
459 2 6.44896 8.37743 4.56 -2585.98 -2560.43 161.45 9.87189 13.8288 20.7443
460 2 7.25512 9.77373 0 2481.97 2482.8 -612.644 1.01166 1.1053 2.03844
461 2 5.64285 9.7737 2.28144 -2427.92 -2414.26 3151.93 9.22726 11.1653 16.9337
462 2 8.86735 9.77368 4.55998 -2591.61 -2563.65 181.797 3.09074 9.46955 25.2265
463 2 4.8367 8.37742 6.83851 -2580.28 -2556.39 51.4094 14.3811 18.9848 21.2092
464 2 8.06119 8.37737 9.11698 -2595.63 -2541.86 72.3996 10.4147 19.9607 43.4509
465 2 6.44891 8.37732 11.3955 -2585.77 -2527.92 67.8724 28.1125 34.7198 52.9415
466 2 7.25508 9.77365 6.83847 -2586.2 -2554.79 80.2674 10.7853 19.3698 31.5095
467 2 5.64282 9.77362 9.11698 -2579.83 -2552.38 66.9282 18.9538 27.4292 34.239
468 2 8.86731 9.77355 11.3954 -2598.71 -2527.29 108.625 11.8376 31.7575 71.0403
469 2 4.83664 8.37729 13.674 -2573.1 -2520.47 51.8035 44.715 44.0674 56.7684
470 2 8.06109 8.37715 15.9525 -2582.41 -2444.16 77.3167 59.3586 55.3348 105.895
471 2 6.4488 8.37708 18.231 -2545.47 -2410.12 50.0709 95.6302 63.6472 99.6473
472 2 7.25502 9.77348 13.6739 -2578.17 -2507.59 96.8434 40.0452 53.9807 84.3167
473 2 5.64273 9.77342 15.9525 -2551.35 -2494.73 68.9052 63.4504 64.6043 86.6953
474 2 8.86714 9.77324 18.2309 -2537.49 -2360.57 101.038 102.216 84.0865 151.606
475 2 4.83654 8.37706 20.5096 -2521.75 -2399.49 118.521 106.018 51.1029 71.7545
476 2 8.06111 8.37704 22.7881 -2429 -2170.06 3089.27 73.116 18.6912 47.5539
477 2 6.44894 8.37712 25.0696 1747.12 1772.53 -437.116 6.33938 0.924551 1.41409
478 2 7.25485 9.77317 20.5094 -2477.16 -2328.06 151.295 142.231 78.0571 117.322
479 2 5.64263 9.77321 22.7881 -2307.84 -2193.94 3096.42 128.825 45.5674 58.3815
480 2 8.86727 9.77336 25.0695 1743.92 1778.9 -436.878 6.17496 0.276159 2.43658
481 2 4.83674 11.17 0 2481.62 2482.65 -613.524 0.795158 1.06363 1.59202
482 2 8.06123 11.1699 2.28143 -2428.82 -2413.24 3181.53 7.10587 9.11144 21.2589
483 2 6.44897 11.1699 4.55998 -2580.44 -2565.23 182.589 9.16958 14.5546 21.8478
484 2 7.25512 12.5662 0 2482.54 2483.37 -610.083 1.05632 1.00338 2.08239
485 2 5.64286 12.5662 2.28144 -2421.4 -2417.05 3169.64 7.68363 8.27351 16.4561
486 2 8.86736 12.5662 4.55994 -2583.82 -2565.56 224.752 3.47481 12.1173 27.1559
487 2 4.83672 11.1699 6.83849 -2576.07 -2566.48 63.0242 11.215 18.0284 21.0445
488 2 8.06121 11.1698 9.11691 -2584.75 -2549.17 113.033 11.7733 28.7275 48.6646
489 2 6.44895 11.1698 11.3954 -2573.66 -2547.63 92.4879 23.853 40.12 52.9721
490 2 7.25511 12.5661 6.83843 -2576.68 -2563.65 109.684 8.52215 20.9184 30.557
491 2 5.64286 12.5661 9.11695 -2570.61 -2568.37 84.281 11.8173 24.7429 31.4272
492 2 8.86734 12.566 11.3953 -2573.63 -2541.29 164.45 14.5933 44.7088 72.8357
493 2 4.83669 11.1698 13.674 -2563.12 -2551.09 63.9658 31.4349 44.0932 54.2481
494 2 8.0611 11.1696 15.9523 -2544.8 -2473.61 139.461 62.3425 87.3453 129.966
495 2 6.4488 11.1695 18.2309 -2482.6 -2452.24 91.5736 94.7485 95.8108 123.537
496 2 7.25508 12.566 13.6738 -2549.15 -2542.41 128.417 29.7272 58.8962 76.4418
497 2 5.64282 12.5659 15.9524 -2520.02 -2544.85 85.5025 34.8409 61.0249 76.4036
498 2 8.8671 12.5657 18.2306 -2461.61 -2417.33 192.383 121.093 150.892 197.637
499 2 4.83652 11.1695 20.5095 -2421.99 -2431.72 142.474 106.664 79.0102 96.3828
500 2 8.06085 11.1693 22.7879 -2243.32 -2081.88 3117.58 211.104 72.6346 102.515
501 2 6.44873 11.1695 25.0695 1766.09 1779.36 -437.419 21.0668 2.51262 3.1467
502 2 7.25476 12.5656 20.5093 -2338.48 -2387.38 206.538 173.449 144.817 163.072
503 2 5.64249 12.5656 22.788 -2102.98 -2223.74 3117.22 185.376 92.3747 91.8829
504 2 8.86686 12.5656 25.0693 1766.97 1799.3 -437 34.5938 3.06143 6.17268
505 2 4.83674 13.9625 0 2482.18 2482.79 -611.898 0.771973 0.538705 1.44582
506 2 8.06124 13.9624 2.28141 -2419.81 -2414.14 3216.7 6.00034 7.17101 19.8878
507 2 6.44899 13.9624 4.55995 -2571.21 -2572.09 207.14 5.76489 11.0474 19.4559
508 2 7.25512 15.3587 0 2483.3 2483.85 -607.303 0.907103 0.567253 1.72324
509 2 5.64287 15.3587 2.28142 -2412.13 -2420.45 3192.53 4.56278 1.9438 13.4101
510 2 8.86737 15.3587 4.5599 -2571.16 -2570.49 266.073 2.02772 10.8695 22.4879
511 2 4.83676 13.9624 6.83846 -2567.39 -2577.48 80.5303 4.78023 11.0201 19.04
512 2 8.06125 13.9624 9.11684 -2564.53 -2564.37 149.143 7.61016 29.4225 41.9788
513 2 6.44902 13.9623 11.3954 -2549.57 -2573.21 113.872 10.2544 31.7929 43.4529
514 2 7.25514 15.3587 6.83839 -2560.4 -2574.92 138.589 3.28867 15.2493 24.0372
515 2 5.64292 15.3586 9.1169 -2550.36 -2584.64 106.452 1.3539 11.1792 25.0889
516 2 8.86739 15.3586 11.3952 -2535.19 -2567.87 199.266 9.40158 43.0456 53.0991
517 2 4.8368 13.9623 13.6739 -2534.18 -2583.95 78.8625 6.05078 25.3891 45.2924
518 2 8.06117 13.9621 15.9522 -2496.49 -2541 168.807 45.6267 92.5553 102.39
519 2 6.4489 13.962 18.2308 -2431.78 -2541.52 103.695 49.6956 93.8999 99.4077
520 2 7.25517 15.3585 13.6738 -2502.31 -2584.8 145.11 10.37 43.2157 53.5375
521 2 5.64297 15.3585 15.9523 -2460.89 -2597.95 96.7694 1.21544 33.3373 55.1383
522 2 8.86716 15.3582 18.2305 -2421.25 -2551.77 200.889 87.884 157.987 128.979
523 2 4.83662 13.962 20.5094 -2341.13 -2519.83 149.544 50.0002 81.7852 91.4903
524 2 8.06049 13.9617 22.7877 -1919.21 -2127.49 3173.88 359.84 191.923 175.377
525 2 6.44832 13.9618 25.0694 1816.55 1778.56 -437.657 47.3332 7.14652 4.81294
526 2 7.2548 15.3582 20.5092 -2299.66 -2541.69 203.584 101.344 158.043 127.017
527 2 5.64244 15.3582 22.7879 -1981.24 -2347.81 3114.27 134.135 121.655 99.8535
528 2 8.86598 15.3579 25.0691 1872.19 1805.26 -436.928 100.954 16.2322 8.93601
529 2 4.83674 16.755 0 2483 2482.95 -609.73 0.60364 -0.272784 1.05919
530 2 8.06125 16.7549 2.2814 -2408.79 -2416.17 3249.42 3.46408 2.32706 14.1947
531 2 6.44902 16.7549 4.55993 -2558.12 -2579.09 233.333 1.66637 2.83841 13.8127
532 2 7.25512 18.1512 0 2484.06 2484.18 -604.892 0.53912 -0.0522221 0.988151
533 2 5.64288 18.1512 2.28141 -2402.17 -2423.31 3215.79 1.56794 -6.1127 7.73294
534 2 8.86739 18.1512 4.55987 -2557.43 -2575.8 296.848 0.420756 6.61103 12.6316
535 2 4.8368 16.7549 6.83843 -2551.08 -2587.31 105.768 -1.43096 -3.39539 14.5911
536 2 8.0613 16.7549 9.11678 -2535.85 -2581.28 175.675 1.43014 20.3162 27.2078
537 2 6.4491 16.7549 11.3953 -2510.16 -2597.21 133.781 -2.26103 10.246 28.5393
538 2 7.25517 18.1512 6.83835 -2541.08 -2584.63 162.521 -0.363149 5.13408 13.3532
539 2 5.64298 18.1512 9.11686 -2522.44 -2597.58 130.216 -3.9279 -8.68617 14.5851
540 2 8.86744 18.1511 11.3951 -2494.08 -2591.66 211.921 2.88061 31.2394 25.7856
541 2 4.83693 16.7549 13.6739 -2477.49 -2613.56 100.702 -13.2393 -11.417 31.693
542 2 8.06127 16.7547 15.9521 -2435.22 -2610.19 166.175 21.3844 72.0985 57.7559
543 2 6.44904 16.7547 18.2307 -2366.38 -2624.71 99.2526 13.3047 68.0756 59.8021
544 2 7.25526 18.1511 13.6737 -2448.06 -2618.32 151.387 -0.806842 18.2244 26.4429
545 2 5.6431 18.1511 15.9523 -2388.22 -2639.79 104.779 -11.2527 -3.82319 28.8173
546 2 8.86723 18.151 18.2305 -2369.54 -2658.75 169.893 45.3346 132.661 54.3128
547 2 4.83678 16.7546 20.5094 -2263.81 -2612.19 147.418 5.75013 61.9853 63.7696
548 2 8.06035 16.7543 22.7876 -1865.01 -2365.38 3157.05 220.37 239.575 162.93
549 2 6.44794 16.7544 25.0693 1867.04 1762.05 -437.909 44.0988 13.4224 4.72195
550 2 7.25489 18.1509 20.5091 -2272.37 -2663.01 184.156 44.4344 142.385 63.3056
551 2 5.64247 18.1509 22.7879 -1941.91 -2465.51 3108.86 61.1709 130.226 64.3229
552 2 8.86529 18.1506 25.069 1956.78 1767.41 -436.9 73.9477 28.9278 7.13804
553 2 4.83674 19.5475 0 2483.71 2483.07 -607.944 0.239986 -0.992379 0.405831
554 2 8.06125 19.5475 2.28139 -2400.51 -2417.85 3270.31 1.0475 -2.25602 5.23861
555 2 6.44904 19.5475 4.55991 -2547.16 -2583.7 252.195 -0.0674368 -5.05822 5.11408
556 2 7.25512 20.9437 0 2484.41 2484.29 -603.879 0.00862277 -0.365217 0.0170645
557 2 5.64289 20.9437 2.28141 -2397.51 -2424.47 3226.41 0.0435201 -10.1178 0.100727
558 2 8.8674 20.9437 4.55986 -2551.19 -2578.16 308.605 0.0287752 4.19872 0.0973076
559 2 4.83684 19.5475 6.8384 -2535.18 -2593.53 127.314 -1.93745 -17.4127 5.72309
560 2 8.06133 19.5474 9.11675 -2512.44 -2592.33 190.158 -0.648187 10.3149 9.25504
561 2 6.44916 19.5474 11.3953 -2475.86 -2612.32 147.452 -3.30094 -9.51574 9.96029
562 2 7.25519 20.9437 6.83834 -2531.88 -2588.62 172.409 -0.0575348 -0.0992115 0.00549417
563 2 5.64301 20.9437 9.11684 -2508.37 -2602.81 141.223 -0.169325 -18.6807 -0.0714059
564 2 8.86746 20.9437 11.3951 -2475.34 -2600.94 214.015 -0.261207 24.519 -0.142106
565 2 4.83703 19.5474 13.6738 -2425.42 -2632.97 118.797 -9.27801 -43.9913 11.6642