3074
 Atoms. Timestep: 200
Pt 0 0 0
Pt 3.22448 44.6799 2.28146
Pt 1.61223 44.6799 4.56003
Pt 2.41837 1.39625 0
Pt 0.806113 1.39625 2.28146
Pt 4.0306 1.39624 4.56003
Pt 38.6939 44.6799 6.83856
Pt 3.22445 44.6799 9.11706
Pt 1.61219 44.6799 11.3956
Pt 2.41834 1.39624 6.83855
Pt 0.806083 1.39624 9.11707
Pt 4.03055 1.39621 11.3956
Pt 38.6939 44.6799 13.6741
Pt 3.22441 44.6799 15.9526
Pt 1.61216 44.6799 18.2312
Pt 2.41829 1.39621 13.6741
Pt 0.806034 1.39621 15.9526
Pt 4.03053 1.39617 18.2312
Pt 38.6939 44.6799 20.5097
Pt 3.22446 44.6799 22.7883
Pt 1.61223 44.6799 25.0698
Pt 2.41829 1.39617 20.5097
Pt 0.806054 1.39619 22.7883
Pt 4.03063 1.39618 25.0698
Pt 0 2.7925 0
Pt 3.22448 2.79249 2.28146
Pt 1.61223 2.79249 4.56003
Pt 2.41837 4.18874 0
Pt 0.806113 4.18874 2.28147
Pt 4.0306 4.18872 4.56002
Pt -2.51315e-05 2.79249 6.83856
Pt 3.22445 2.79246 9.11706
Pt 1.61219 2.79246 11.3956
Pt 2.41834 4.18872 6.83855
Pt 0.806086 4.18872 9.11708
Pt 4.03055 4.18868 11.3956
Pt 38.6939 2.79246 13.6741
Pt 3.22439 2.79241 15.9526
Pt 1.61214 2.79241 18.2312
Pt 2.41829 4.18867 13.6741
Pt 0.806026 4.18867 15.9526
Pt 4.03049 4.18858 18.2311
Pt 38.6938 2.79241 20.5097
Pt 3.22444 2.79238 22.7883
Pt 1.61221 2.7924 25.0698
Pt 2.41825 4.18859 20.5097
Pt 0.806022 4.18861 22.7883
Pt 4.03062 4.18859 25.0698
Pt 0 5.58499 0
Pt 3.22448 5.58498 2.28146
Pt 1.61223 5.58498 4.56004
Pt 2.41837 6.98124 0
Pt 0.806115 6.98123 2.28147
Pt 4.0306 6.98121 4.56002
Pt -2.14683e-05 5.58498 6.83856
Pt 3.22445 5.58495 9.11706
Pt 1.61219 5.58495 11.3956
Pt 2.41834 6.98121 6.83855
Pt 0.806093 6.98122 9.11708
Pt 4.03055 6.98115 11.3956
Pt 38.6939 5.58495 13.6741
Pt 3.22437 5.58485 15.9526
Pt 1.61212 5.58485 18.2312
Pt 2.41829 6.98115 13.6741
Pt 0.806028 6.98115 15.9527
Pt 4.03046 6.981 18.2311
Pt 38.6938 5.58486 20.5097
Pt 3.22439 5.58477 22.7883
Pt 1.61219 5.58481 25.0698
Pt 2.41821 6.98101 20.5097
Pt 0.805985 6.98103 22.7883
Pt 4.03058 6.98097 25.0698
Pt 0 8.37749 0
Pt 3.22448 8.37747 2.28146
Pt 1.61223 8.37747 4.56004
Pt 2.41837 9.77373 0
Pt 0.806118 9.77373 2.28147
Pt 4.0306 9.77371 4.56002
Pt 38.6939 8.37748 6.83857
Pt 3.22446 8.37744 9.11706
Pt 1.61221 8.37744 11.3956
Pt 2.41835 9.77371 6.83856
Pt 0.806108 9.77371 9.11709
Pt 4.03057 9.77365 11.3956
Pt -4.81354e-05 8.37745 13.6741
Pt 3.22438 8.37732 15.9526
Pt 1.61212 8.37732 18.2312
Pt 2.41832 9.77365 13.6741
Pt 0.806064 9.77365 15.9527
Pt 4.03047 9.77346 18.2311
Pt 38.6938 8.37731 20.5097
Pt 3.22434 8.37716 22.7883
Pt 1.61215 8.3772 25.0698
Pt 2.41822 9.77344 20.5097
Pt 0.805987 9.77344 22.7883
Pt 4.03049 9.77335 25.0698
Pt 0 11.17 0
Pt 3.22449 11.17 2.28146
Pt 1.61224 11.17 4.56004
Pt 2.41837 12.5662 0
Pt 0.806125 12.5662 2.28147
Pt 4.03061 12.5662 4.56002
Pt 38.6939 11.17 6.83857
Pt 3.22448 11.1699 9.11706
Pt 1.61224 11.1699 11.3956
Pt 2.41837 12.5662 6.83855
Pt 0.806137 12.5662 9.11708
Pt 4.03062 12.5662 11.3956
Pt -3.79665e-06 11.17 13.6741
Pt 3.22444 11.1698 15.9526
Pt 1.61219 11.1698 18.2312
Pt 2.41839 12.5662 13.6741
Pt 0.806161 12.5661 15.9526
Pt 4.03058 12.566 18.2311
Pt -6.26283e-05 11.1698 20.5097
Pt 3.22431 11.1696 22.7883
Pt 1.61213 11.1696 25.0698
Pt 2.41833 12.5659 20.5097
Pt 0.806098 12.5659 22.7883
Pt 4.03035 12.5658 25.0697
Pt 0 13.9625 0
Pt 3.2245 13.9625 2.28146
Pt 1.61226 13.9625 4.56003
Pt 2.41837 15.3587 0
Pt 0.806137 15.3587 2.28146
Pt 4.03063 15.3587 4.56001
Pt 2.3468e-05 13.9625 6.83855
Pt 3.22452 13.9624 9.11705
Pt 1.6123 13.9624 11.3956
Pt 2.41841 15.3587 6.83853
Pt 0.806189 15.3587 9.11704
Pt 4.0307 15.3587 11.3955
Pt 8.89538e-05 13.9625 13.6741
Pt 3.22458 13.9623 15.9526
Pt 1.61238 13.9623 18.2311
Pt 2.41852 15.3587 13.6741
Pt 0.806355 15.3587 15.9526
Pt 4.03077 15.3585 18.2311
Pt 0.000173424 13.9622 20.5097
Pt 3.22437 13.9621 22.7882
Pt 1.61213 13.9621 25.0698
Pt 2.41855 15.3584 20.5096
Pt 0.806315 15.3584 22.7882
Pt 4.0302 15.3583 25.0697
Pt 0 16.755 0
Pt 3.22451 16.755 2.28145
Pt 1.61228 16.755 4.56001
Pt 2.41837 18.1512 0
Pt 0.80615 18.1512 2.28144
Pt 4.03066 18.1512 4.55999
Pt 6.25336e-05 16.755 6.8385
Pt 3.22458 16.7549 9.11701
Pt 1.6124 16.755 11.3955
Pt 2.41845 18.1512 6.83849
Pt 0.806258 18.1512 9.11697
Pt 4.03079 18.1512 11.3955
Pt 0.000252892 16.755 13.674
Pt 3.22477 16.7549 15.9525
Pt 1.61264 16.7548 18.231
Pt 2.41867 18.1512 13.674
Pt 0.80659 18.1512 15.9524
Pt 4.03095 18.1511 18.231
Pt 0.00052709 16.7548 20.5095
Pt 3.22449 16.7547 22.7882
Pt 1.61216 16.7547 25.0697
Pt 2.41878 18.1511 20.5095
Pt 0.806537 18.151 22.7881
Pt 4.03011 18.151 25.0697
Pt 0 19.5475 0
Pt 3.22452 19.5475 2.28144
Pt 1.6123 19.5475 4.55998
Pt 2.41837 20.9437 0
Pt 0.806157 20.9437 2.28143
Pt 4.03067 20.9437 4.55998
Pt 0.00010007 19.5475 6.83845
Pt 3.22464 19.5475 9.11697
Pt 1.61249 19.5475 11.3954
Pt 2.41847 20.9437 6.83847
Pt 0.806293 20.9437 9.11693
Pt 4.03084 20.9437 11.3955
Pt 0.000407572 19.5475 13.6739
Pt 3.22491 19.5474 15.9525
Pt 1.61285 19.5474 18.2309
Pt 2.41874 20.9437 13.6739
Pt 0.806702 20.9437 15.9524
Pt 4.03103 20.9437 18.231
Pt 0.000803984 19.5474 20.5094
Pt 3.22459 19.5473 22.7881
Pt 1.61218 19.5474 25.0696
Pt 2.41887 20.9437 20.5095
Pt 0.806632 20.9437 22.788
Pt 4.03008 20.9437 25.0696
Pt 0 22.34 0
Pt 3.22452 22.34 2.28144
Pt 1.6123 22.34 4.55998
Pt 2.41837 23.7362 0
Pt 0.80615 23.7362 2.28144
Pt 4.03066 23.7362 4.55999
Pt 0.000100394 22.34 6.83845
Pt 3.22464 22.34 9.11697
Pt 1.61249 22.34 11.3954
Pt 2.41845 23.7362 6.83849
Pt 0.806259 23.7362 9.11697
Pt 4.0308 23.7362 11.3955
Pt 0.000408266 22.34 13.6739
Pt 3.22491 22.34 15.9525
Pt 1.61285 22.34 18.2309
Pt 2.41867 23.7362 13.674
Pt 0.806591 23.7363 15.9524
Pt 4.03095 23.7363 18.231
Pt 0.000804926 22.34 20.5094
Pt 3.22459 22.3401 22.7881
Pt 1.61218 22.3401 25.0696
Pt 2.41878 23.7364 20.5095
Pt 0.806538 23.7364 22.7881
Pt 4.03011 23.7365 25.0697
Pt 0 25.1325 0
Pt 3.22451 25.1325 2.28145
Pt 1.61228 25.1325 4.56001
Pt 2.41837 26.5287 0
Pt 0.806137 26.5287 2.28146
Pt 4.03063 26.5287 4.56001
Pt 6.33143e-05 25.1325 6.8385
Pt 3.22458 25.1325 9.11701
Pt 1.61241 25.1325 11.3955
Pt 2.41841 26.5287 6.83853
Pt 0.80619 26.5287 9.11704
Pt 4.03071 26.5288 11.3955
Pt 0.000254561 25.1325 13.674
Pt 3.22477 25.1326 15.9525
Pt 1.61265 25.1326 18.231
Pt 2.41852 26.5288 13.6741
Pt 0.806357 26.5288 15.9526
Pt 4.03077 26.5289 18.2311
Pt 0.000529384 25.1327 20.5095
Pt 3.22449 25.1328 22.7882
Pt 1.61216 25.1328 25.0697
Pt 2.41855 26.529 20.5096
Pt 0.806316 26.529 22.7882
Pt 4.0302 26.5291 25.0697
Pt 0 27.925 0
Pt 3.2245 27.925 2.28146
Pt 1.61226 27.925 4.56003
Pt 2.41837 29.3212 0
Pt 0.806125 29.3212 2.28147
Pt 4.03061 29.3212 4.56002
Pt 2.4309e-05 27.925 6.83855
Pt 3.22452 27.925 9.11705
Pt 1.6123 27.925 11.3956
Pt 2.41837 29.3212 6.83855
Pt 0.806138 29.3212 9.11708
Pt 4.03062 29.3213 11.3956
Pt 9.07314e-05 27.925 13.6741
Pt 3.22458 27.9251 15.9526
Pt 1.61238 27.9251 18.2311
Pt 2.41839 29.3213 13.6741
Pt 0.806163 29.3213 15.9526
Pt 4.03058 29.3215 18.2311
Pt 0.000175915 27.9252 20.5097
Pt 3.22437 27.9254 22.7882
Pt 1.61213 27.9254 25.0698
Pt 2.41833 29.3215 20.5097
Pt 0.806099 29.3216 22.7883
Pt 4.03034 29.3217 25.0697
Pt 0 30.7174 0
Pt 3.22449 30.7175 2.28146
Pt 1.61224 30.7175 4.56004
Pt 2.41837 32.1137 0
Pt 0.806118 32.1137 2.28147
Pt 4.0306 32.1137 4.56002
Pt 38.6939 30.7175 6.83857
Pt 3.22448 30.7175 9.11706
Pt 1.61224 30.7175 11.3956
Pt 2.41835 32.1137 6.83855
Pt 0.806108 32.1137 9.11709
Pt 4.03057 32.1138 11.3956
Pt -2.56271e-06 30.7175 13.6741
Pt 3.22445 30.7176 15.9526
Pt 1.61219 30.7176 18.2312
Pt 2.41832 32.1138 13.6741
Pt 0.806065 32.1138 15.9527
Pt 4.03047 32.114 18.2311
Pt -6.08747e-05 30.7177 20.5097
Pt 3.22431 30.7179 22.7883
Pt 1.61213 30.7178 25.0698
Pt 2.41822 32.114 20.5097
Pt 0.805987 32.114 22.7883
Pt 4.03049 32.1141 25.0698
Pt 0 33.5099 0
Pt 3.22448 33.51 2.28146
Pt 1.61223 33.51 4.56004
Pt 2.41837 34.9062 0
Pt 0.806115 34.9062 2.28147
Pt 4.0306 34.9062 4.56002
Pt 38.6939 33.51 6.83857
Pt 3.22446 33.51 9.11706
Pt 1.61221 33.51 11.3956
Pt 2.41834 34.9062 6.83855
Pt 0.806093 34.9062 9.11708
Pt 4.03055 34.9063 11.3956
Pt -4.75854e-05 33.51 13.6741
Pt 3.22438 33.5101 15.9526
Pt 1.61212 33.5101 18.2312
Pt 2.41829 34.9063 13.6741
Pt 0.806028 34.9063 15.9527
Pt 4.03046 34.9064 18.2311
Pt 38.6938 33.5101 20.5097
Pt 3.22434 33.5103 22.7883
Pt 1.61215 33.5102 25.0698
Pt 2.41821 34.9064 20.5097
Pt 0.805985 34.9064 22.7883
Pt 4.03057 34.9065 25.0698
Pt 0 36.3024 0
Pt 3.22448 36.3024 2.28146
Pt 1.61223 36.3025 4.56004
Pt 2.41837 37.6987 0
Pt 0.806113 37.6987 2.28147
Pt 4.0306 37.6987 4.56002
Pt -2.13063e-05 36.3024 6.83856
Pt 3.22445 36.3025 9.11706
Pt 1.61219 36.3025 11.3956
Pt 2.41834 37.6987 6.83855
Pt 0.806086 37.6987 9.11708
Pt 4.03055 37.6988 11.3956
Pt 38.6939 36.3025 13.6741
Pt 3.22437 36.3026 15.9526
Pt 1.61212 36.3026 18.2312
Pt 2.41829 37.6988 13.6741
Pt 0.806025 37.6988 15.9526
Pt 4.03049 37.6989 18.2311
Pt 38.6938 36.3026 20.5097
Pt 3.22439 36.3027 22.7883
Pt 1.61219 36.3026 25.0698
Pt 2.41825 37.6988 20.5097
Pt 0.806021 37.6988 22.7883
Pt 4.03061 37.6988 25.0698
Pt 0 39.0949 0
Pt 3.22448 39.0949 2.28146
Pt 1.61223 39.0949 4.56003
Pt 2.41837 40.4912 0
Pt 0.806113 40.4912 2.28146
Pt 4.0306 40.4912 4.56002
Pt -2.50586e-05 39.0949 6.83856
Pt 3.22445 39.095 9.11706
Pt 1.61219 39.095 11.3956
Pt 2.41834 40.4912 6.83855
Pt 0.806083 40.4912 9.11707
Pt 4.03055 40.4912 11.3956
Pt 38.6939 39.095 13.6741
Pt 3.22439 39.095 15.9526
Pt 1.61214 39.095 18.2312
Pt 2.41829 40.4912 13.6741
Pt 0.806034 40.4912 15.9526
Pt 4.03053 40.4913 18.2312
Pt 38.6938 39.095 20.5097
Pt 3.22444 39.0951 22.7883
Pt 1.61221 39.095 25.0698
Pt 2.41829 40.4913 20.5097
Pt 0.806054 40.4912 22.7883
Pt 4.03063 40.4913 25.0698
Pt 0 41.8874 0
Pt 3.22448 41.8874 2.28146
Pt 1.61223 41.8874 4.56003
Pt 2.41837 43.2837 0
Pt 0.806112 43.2837 2.28146
Pt 4.0306 43.2837 4.56003
Pt 38.6939 41.8874 6.83856
Pt 3.22445 41.8874 9.11706
Pt 1.61219 41.8874 11.3956
Pt 2.41834 43.2837 6.83855
Pt 0.806082 43.2837 9.11707
Pt 4.03055 43.2837 11.3956
Pt 38.6939 41.8874 13.6741
Pt 3.22441 41.8875 15.9526
Pt 1.61216 41.8875 18.2312
Pt 2.41829 43.2837 13.6741
Pt 0.806039 43.2837 15.9526
Pt 4.03054 43.2837 18.2312
Pt 38.6939 41.8875 20.5097
Pt 3.22446 41.8875 22.7883
Pt 1.61223 41.8875 25.0698
Pt 2.4183 43.2837 20.5097
Pt 0.806066 43.2837 22.7883
Pt 4.03064 43.2837 25.0698
Pt 4.83674 0 0
Pt 8.06123 44.6799 2.28146
Pt 6.44897 44.6799 4.56003
Pt 7.25512 1.39625 0
Pt 5.64285 1.39624 2.28146
Pt 8.86734 1.39623 4.56003
Pt 4.83671 44.6799 6.83854
Pt 8.0612 44.6799 9.11707
Pt 6.44893 44.6799 11.3956
Pt 7.25508 1.39622 6.83854
Pt 5.64282 1.39622 9.11705
Pt 8.86731 1.3962 11.3956
Pt 4.83666 44.6799 13.6741
Pt 8.06119 44.6799 15.9527
Pt 6.44894 44.6799 18.2312
Pt 7.25504 1.39618 13.6741
Pt 5.64278 1.39617 15.9526
Pt 8.86734 1.39616 18.2312
Pt 4.8367 44.6799 20.5097
Pt 8.06129 44.6799 22.7883
Pt 6.44905 44.6799 25.0698
Pt 7.2551 1.39616 20.5097
Pt 5.64286 1.39617 22.7883
Pt 8.86746 1.39619 25.0698
Pt 4.83674 2.7925 0
Pt 8.06123 2.79248 2.28146
Pt 6.44897 2.79247 4.56002
Pt 7.25512 4.18874 0
Pt 5.64285 4.18873 2.28146
Pt 8.86734 4.18871 4.56002
Pt 4.83671 2.79247 6.83854
Pt 8.06119 2.79244 9.11705
Pt 6.44892 2.79243 11.3956
Pt 7.25508 4.1887 6.83853
Pt 5.64281 4.18869 9.11704
Pt 8.8673 4.18865 11.3956
Pt 4.83665 2.79241 13.6741
Pt 8.06116 2.79237 15.9526
Pt 6.44891 2.79235 18.2312
Pt 7.25502 4.18861 13.6741
Pt 5.64275 4.18859 15.9526
Pt 8.86729 4.18855 18.2312
Pt 4.83667 2.79236 20.5097
Pt 8.06127 2.79237 22.7883
Pt 6.44904 2.79238 25.0698
Pt 7.25505 4.18854 20.5097
Pt 5.64283 4.18856 22.7883
Pt 8.86746 4.18861 25.0698
Pt 4.83674 5.58499 0
Pt 8.06123 5.58497 2.28145
Pt 6.44897 5.58496 4.56001
Pt 7.25512 6.98124 0
Pt 5.64285 6.98122 2.28145
Pt 8.86734 6.9812 4.56001
Pt 4.83671 5.58495 6.83853
Pt 8.06119 5.58491 9.11703
Pt 6.44891 5.58488 11.3955
Pt 7.25508 6.98118 6.83851
Pt 5.64281 6.98116 9.11703
Pt 8.86729 6.9811 11.3955
Pt 4.83664 5.58486 13.6741
Pt 8.06112 5.58477 15.9526
Pt 6.44885 5.58474 18.2311
Pt 7.255 6.98105 13.674
Pt 5.64272 6.98102 15.9526
Pt 8.86721 6.9809 18.2311
Pt 4.83661 5.58475 20.5097
Pt 8.06123 5.58474 22.7883
Pt 6.44902 5.58478 25.0697
Pt 7.25496 6.98088 20.5096
Pt 5.64276 6.98092 22.7882
Pt 8.86743 6.98101 25.0697
Pt 4.83674 8.37749 0
Pt 8.06122 8.37746 2.28145
Pt 6.44896 8.37745 4.56001
Pt 7.25512 9.77373 0
Pt 5.64285 9.77371 2.28145
Pt 8.86734 9.77368 4.55999
Pt 4.83671 8.37744 6.83853
Pt 8.06119 8.37738 9.11699
Pt 6.44892 8.37735 11.3955
Pt 7.25508 9.77366 6.83849
Pt 5.64282 9.77365 9.11702
Pt 8.86729 9.77356 11.3954
Pt 4.83665 8.37734 13.6741
Pt 8.06108 8.37717 15.9525
Pt 6.44879 8.37713 18.2311
Pt 7.25501 9.77351 13.674
Pt 5.64274 9.77347 15.9525
Pt 8.86712 9.77324 18.2309
Pt 4.83655 8.37713 20.5096
Pt 8.0611 8.37706 22.7882
Pt 6.44894 8.37715 25.0697
Pt 7.25484 9.77321 20.5095
Pt 5.64264 9.77326 22.7882
Pt 8.86729 9.77335 25.0696
Pt 4.83674 11.17 0
Pt 8.06122 11.17 2.28144
Pt 6.44897 11.1699 4.56
Pt 7.25512 12.5662 0
Pt 5.64286 12.5662 2.28145
Pt 8.86734 12.5662 4.55996
Pt 4.83672 11.1699 6.83853
Pt 8.0612 11.1699 9.11695
Pt 6.44894 11.1698 11.3955
Pt 7.25509 12.5662 6.83847
Pt 5.64285 12.5662 9.11701
Pt 8.86732 12.566 11.3954
Pt 4.83669 11.1698 13.674
Pt 8.06109 11.1696 15.9524
Pt 6.4488 11.1696 18.231
Pt 7.25507 12.566 13.6739
Pt 5.64282 12.566 15.9525
Pt 8.8671 12.5657 18.2308
Pt 4.83653 11.1696 20.5096
Pt 8.06087 11.1693 22.788
Pt 6.44875 11.1695 25.0696
Pt 7.25477 12.5656 20.5094
Pt 5.64252 12.5657 22.7881
Pt 8.86692 12.5656 25.0694
Pt 4.83674 13.9625 0
Pt 8.06123 13.9625 2.28143
Pt 6.44898 13.9624 4.55999
Pt 7.25512 15.3587 0
Pt 5.64287 15.3587 2.28144
Pt 8.86735 15.3587 4.55994
Pt 4.83675 13.9624 6.83852
Pt 8.06123 13.9624 9.11692
Pt 6.449 13.9624 11.3955
Pt 7.25512 15.3587 6.83845
Pt 5.6429 15.3587 9.11699
Pt 8.86737 15.3586 11.3953
Pt 4.83679 13.9624 13.674
Pt 8.06117 13.9621 15.9523
Pt 6.44891 13.9621 18.2309
Pt 7.25516 15.3585 13.6739
Pt 5.64297 15.3585 15.9525
Pt 8.86718 15.3582 18.2307
Pt 4.83664 13.9621 20.5096
Pt 8.06055 13.9617 22.7879
Pt 6.44838 13.9619 25.0696
Pt 7.25485 15.3582 20.5094
Pt 5.64249 15.3582 22.7881
Pt 8.8661 15.3579 25.0693
Pt 4.83674 16.755 0
Pt 8.06124 16.755 2.28142
Pt 6.449 16.7549 4.55998
Pt 7.25512 18.1512 0
Pt 5.64288 18.1512 2.28144
Pt 8.86736 18.1512 4.55992
Pt 4.83678 16.7549 6.83849
Pt 8.06127 16.7549 9.11689
Pt 6.44908 16.7549 11.3954
Pt 7.25515 18.1512 6.83844
Pt 5.64296 18.1512 9.11696
Pt 8.86742 18.1511 11.3953
Pt 4.83692 16.7549 13.674
Pt 8.06128 16.7547 15.9523
Pt 6.44907 16.7547 18.2309
Pt 7.25525 18.1511 13.6739
Pt 5.6431 18.1511 15.9524
Pt 8.86728 18.151 18.2307
Pt 4.83681 16.7547 20.5095
Pt 8.06045 16.7544 22.7878
Pt 6.44804 16.7545 25.0696
Pt 7.25496 18.1509 20.5094
Pt 5.64254 18.1509 22.7881
Pt 8.86546 18.1506 25.0692
Pt 4.83674 19.5475 0
Pt 8.06124 19.5475 2.28142
Pt 6.44902 19.5475 4.55997
Pt 7.25512 20.9437 0
Pt 5.64288 20.9437 2.28143
Pt 8.86737 20.9437 4.55992
Pt 4.83681 19.5475 6.83847
Pt 8.0613 19.5474 9.11687
Pt 6.44914 19.5474 11.3954
Pt 7.25516 20.9437 6.83843
Pt 5.64298 20.9437 9.11695
Pt 8.86744 20.9437 11.3953
Pt 4.83701 19.5474 13.674
Pt 8.06136 19.5474 15.9523
Pt 6.44917 19.5474 18.2309
Pt 7.25529 20.9437 13.6739
Pt 5.64316 20.9437 15.9524
Pt 8.86732 20.9437 18.2307
Pt 4.83693 19.5474 20.5095
Pt 8.06046 19.5472 22.7878
Pt 6.44786 19.5473 25.0695
Pt 7.25501 20.9437 20.5094
Pt 5.64257 20.9437 22.7881
Pt 8.86524 20.9437 25.0692
Pt 4.83674 22.34 0
Pt 8.06124 22.34 2.28142
Pt 6.44902 22.34 4.55997
Pt 7.25512 23.7362 0
Pt 5.64288 23.7362 2.28144
Pt 8.86737 23.7362 4.55992
Pt 4.83681 22.34 6.83847
Pt 8.0613 22.34 9.11687
Pt 6.44914 22.34 11.3954
Pt 7.25515 23.7362 6.83844
Pt 5.64296 23.7362 9.11696
Pt 8.86742 23.7363 11.3953
Pt 4.83701 22.34 13.674
Pt 8.06136 22.34 15.9523
Pt 6.44917 22.3401 18.2309
Pt 7.25525 23.7363 13.6739
Pt 5.6431 23.7363 15.9524
Pt 8.86728 23.7365 18.2307
Pt 4.83693 22.3401 20.5095
Pt 8.06046 22.3402 22.7878
Pt 6.44786 22.3402 25.0695
Pt 7.25496 23.7365 20.5094
Pt 5.64254 23.7365 22.7881
Pt 8.86546 23.7368 25.0692
Pt 4.83674 25.1325 0
Pt 8.06124 25.1325 2.28142
Pt 6.449 25.1325 4.55998
Pt 7.25512 26.5287 0
Pt 5.64287 26.5287 2.28144
Pt 8.86735 26.5288 4.55994
Pt 4.83678 25.1325 6.83849
Pt 8.06127 25.1325 9.11689
Pt 6.44908 25.1325 11.3954
Pt 7.25512 26.5288 6.83845
Pt 5.6429 26.5288 9.11699
Pt 8.86737 26.5289 11.3953
Pt 4.83692 25.1325 13.674
Pt 8.06128 25.1327 15.9523
Pt 6.44907 25.1327 18.2309
Pt 7.25516 26.5289 13.6739
Pt 5.64297 26.5289 15.9525
Pt 8.86718 26.5292 18.2307
Pt 4.83681 25.1328 20.5095
Pt 8.06044 25.1331 22.7878
Pt 6.44804 25.133 25.0696
Pt 7.25485 26.5292 20.5094
Pt 5.64249 26.5292 22.7881
Pt 8.8661 26.5296 25.0693
Pt 4.83674 27.925 0
Pt 8.06123 27.925 2.28143
Pt 6.44898 27.925 4.55999
Pt 7.25512 29.3212 0
Pt 5.64286 29.3212 2.28145
Pt 8.86734 29.3213 4.55996
Pt 4.83675 27.925 6.83852
Pt 8.06123 27.9251 9.11692
Pt 6.449 27.9251 11.3955
Pt 7.25509 29.3213 6.83847
Pt 5.64285 29.3213 9.11701
Pt 8.86732 29.3214 11.3954
Pt 4.83679 27.9251 13.674
Pt 8.06117 27.9253 15.9523
Pt 6.44891 27.9253 18.2309
Pt 7.25507 29.3214 13.6739
Pt 5.64282 29.3215 15.9525
Pt 8.86709 29.3218 18.2308
Pt 4.83664 27.9254 20.5096
Pt 8.06054 27.9258 22.7879
Pt 6.44838 27.9256 25.0696
Pt 7.25477 29.3218 20.5094
Pt 5.64251 29.3218 22.7881
Pt 8.86692 29.3218 25.0694
Pt 4.83674 30.7174 0
Pt 8.06122 30.7175 2.28144
Pt 6.44897 30.7175 4.56
Pt 7.25512 32.1137 0
Pt 5.64285 32.1137 2.28145
Pt 8.86734 32.1137 4.55998
Pt 4.83672 30.7175 6.83852
Pt 8.0612 30.7176 9.11695
Pt 6.44894 30.7176 11.3955
Pt 7.25508 32.1138 6.83849
Pt 5.64282 32.1138 9.11702
Pt 8.86729 32.1139 11.3954
Pt 4.83669 30.7176 13.674
Pt 8.06109 30.7178 15.9524
Pt 6.4488 30.7179 18.231
Pt 7.25501 32.1139 13.674
Pt 5.64274 32.114 15.9525
Pt 8.86711 32.1142 18.2309
Pt 4.83653 30.7179 20.5096
Pt 8.06086 30.7181 22.788
Pt 6.44875 30.7179 25.0696
Pt 7.25484 32.1142 20.5095
Pt 5.64264 32.1142 22.7882
Pt 8.86729 32.1141 25.0696
Pt 4.83674 33.5099 0
Pt 8.06122 33.51 2.28145
Pt 6.44896 33.51 4.56001
Pt 7.25512 34.9062 0
Pt 5.64285 34.9062 2.28145
Pt 8.86734 34.9062 4.56001
Pt 4.83671 33.51 6.83853
Pt 8.06118 33.5101 9.11699
Pt 6.44892 33.5101 11.3955
Pt 7.25508 34.9063 6.83851
Pt 5.64281 34.9063 9.11703
Pt 8.86729 34.9063 11.3955
Pt 4.83665 33.5101 13.6741
Pt 8.06107 33.5103 15.9525
Pt 6.44879 33.5103 18.2311
Pt 7.255 34.9064 13.674
Pt 5.64272 34.9064 15.9526
Pt 8.86721 34.9065 18.2311
Pt 4.83654 33.5103 20.5096
Pt 8.0611 33.5104 22.7882
Pt 6.44894 33.5103 25.0697
Pt 7.25496 34.9066 20.5096
Pt 5.64275 34.9065 22.7882
Pt 8.86742 34.9064 25.0697
Pt 4.83674 36.3024 0
Pt 8.06123 36.3025 2.28145
Pt 6.44897 36.3025 4.56001
Pt 7.25512 37.6987 0
Pt 5.64285 37.6987 2.28146
Pt 8.86734 37.6987 4.56002
Pt 4.83671 36.3025 6.83853
Pt 8.06119 36.3025 9.11703
Pt 6.44891 36.3026 11.3955
Pt 7.25508 37.6987 6.83853
Pt 5.64281 37.6987 9.11704
Pt 8.8673 37.6988 11.3956
Pt 4.83664 36.3026 13.6741
Pt 8.06111 36.3027 15.9526
Pt 6.44885 36.3027 18.2311
Pt 7.25502 37.6988 13.6741
Pt 5.64275 37.6988 15.9526
Pt 8.86729 37.6989 18.2312
Pt 4.83661 36.3027 20.5097
Pt 8.06122 36.3027 22.7883
Pt 6.44902 36.3027 25.0697
Pt 7.25505 37.6989 20.5097
Pt 5.64283 37.6989 22.7883
Pt 8.86746 37.6988 25.0698
Pt 4.83674 39.0949 0
Pt 8.06123 39.0949 2.28146
Pt 6.44897 39.095 4.56002
Pt 7.25512 40.4912 0
Pt 5.64285 40.4912 2.28146
Pt 8.86734 40.4912 4.56003
Pt 4.83671 39.095 6.83854
Pt 8.06119 39.095 9.11705
Pt 6.44892 39.095 11.3956
Pt 7.25508 40.4912 6.83854
Pt 5.64282 40.4912 9.11705
Pt 8.86731 40.4912 11.3956
Pt 4.83665 39.095 13.6741
Pt 8.06116 39.0951 15.9526
Pt 6.4489 39.0951 18.2312
Pt 7.25504 40.4913 13.6741
Pt 5.64278 40.4913 15.9526
Pt 8.86734 40.4913 18.2312
Pt 4.83666 39.0951 20.5097
Pt 8.06127 39.0951 22.7883
Pt 6.44904 39.0951 25.0698
Pt 7.2551 40.4913 20.5097
Pt 5.64286 40.4913 22.7883
Pt 8.86746 40.4912 25.0698
Pt 4.83674 41.8874 0
Pt 8.06123 41.8874 2.28146
Pt 6.44897 41.8874 4.56002
Pt 7.25512 43.2837 0
Pt 5.64285 43.2837 2.28146
Pt 8.86735 43.2837 4.56003
Pt 4.83671 41.8874 6.83854
Pt 8.0612 41.8874 9.11706
Pt 6.44893 41.8875 11.3956
Pt 7.25508 43.2837 6.83854
Pt 5.64282 43.2837 9.11706
Pt 8.86732 43.2837 11.3956
Pt 4.83666 41.8875 13.6741
Pt 8.06119 41.8875 15.9527
Pt 6.44894 41.8875 18.2312
Pt 7.25505 43.2837 13.6741
Pt 5.64279 43.2837 15.9526
Pt 8.86735 43.2837 18.2312
Pt 4.8367 41.8875 20.5097
Pt 8.06129 41.8875 22.7883
Pt 6.44905 41.8875 25.0698
Pt 7.25511 43.2837 20.5097
Pt 5.64287 43.2837 22.7883
Pt 8.86746 43.2837 25.0698
Pt 9.67349 0 0
Pt 12.898 44.6799 2.28147
Pt 11.2857 44.6799 4.56004
Pt 12.0919 1.39625 0
Pt 10.4796 1.39624 2.28146
Pt 13.7041 1.39624 4.56005
Pt 9.67346 44.6799 6.83856
Pt 12.898 44.6799 9.11711
Pt 11.2857 44.6799 11.3956
Pt 12.0918 1.39623 6.83857
Pt 10.4796 1.39622 9.11708
Pt 13.7041 1.39623 11.3957
Pt 9.67345 44.6799 13.6741
Pt 12.898 44.6799 15.9527
Pt 11.2858 44.6799 18.2312
Pt 12.0918 1.39621 13.6742
Pt 10.4796 1.39618 15.9527
Pt 13.7042 1.39624 18.2313
Pt 9.67353 44.6799 20.5098
Pt 12.8981 44.6799 22.7884
Pt 11.2859 44.6799 25.0698
Pt 12.0919 1.39622 20.5098
Pt 10.4797 1.3962 22.7883
Pt 13.7043 1.39628 25.0699
Pt 9.67349 2.7925 0
Pt 12.898 2.79249 2.28147
Pt 11.2857 2.79248 4.56004
Pt 12.0919 4.18874 0
Pt 10.4796 4.18873 2.28146
Pt 13.7041 4.18873 4.56005
Pt 9.67346 2.79246 6.83855
Pt 12.898 2.79247 9.1171
Pt 11.2857 2.79244 11.3956
Pt 12.0918 4.18871 6.83856
Pt 10.4796 4.18868 9.11706
Pt 13.7041 4.1887 11.3956
Pt 9.67343 2.7924 13.6741
Pt 12.898 2.79244 15.9527
Pt 11.2857 2.7924 18.2312
Pt 12.0918 4.18866 13.6741
Pt 10.4796 4.18859 15.9526
Pt 13.7041 4.1887 18.2313
Pt 9.67351 2.79238 20.5097
Pt 12.8981 2.7925 22.7884
Pt 11.2859 2.79245 25.0698
Pt 12.0919 4.18865 20.5098
Pt 10.4797 4.18862 22.7883
Pt 13.7043 4.18881 25.0699
Pt 9.67349 5.58499 0
Pt 12.898 5.58498 2.28146
Pt 11.2857 5.58496 4.56003
Pt 12.0919 6.98124 0
Pt 10.4796 6.98122 2.28145
Pt 13.7041 6.98121 4.56004
Pt 9.67346 5.58494 6.83853
Pt 12.898 5.58495 9.11708
Pt 11.2857 5.5849 11.3956
Pt 12.0918 6.98119 6.83853
Pt 10.4796 6.98115 9.11702
Pt 13.7041 6.98118 11.3956
Pt 9.6734 5.58483 13.6741
Pt 12.8979 5.58487 15.9527
Pt 11.2857 5.58478 18.2312
Pt 12.0918 6.98109 13.6741
Pt 10.4795 6.98098 15.9526
Pt 13.7041 6.98111 18.2312
Pt 9.67344 5.58474 20.5097
Pt 12.8981 5.58496 22.7884
Pt 11.2859 5.58491 25.0698
Pt 12.0919 6.98101 20.5097
Pt 10.4796 6.98098 22.7882
Pt 13.7043 6.98135 25.0698
Pt 9.67349 8.37749 0
Pt 12.898 8.37747 2.28146
Pt 11.2857 8.37745 4.56
Pt 12.0919 9.77373 0
Pt 10.4796 9.77371 2.28144
Pt 13.7041 9.77371 4.56001
Pt 9.67345 8.37741 6.83849
Pt 12.898 8.37743 9.11703
Pt 11.2857 8.37735 11.3955
Pt 12.0918 9.77368 6.83849
Pt 10.4796 9.77362 9.11696
Pt 13.7041 9.77367 11.3955
Pt 9.67338 8.37725 13.674
Pt 12.8979 8.37728 15.9526
Pt 11.2856 8.37711 18.231
Pt 12.0918 9.77352 13.6739
Pt 10.4794 9.77336 15.9524
Pt 13.704 9.77346 18.231
Pt 9.67331 8.37703 20.5095
Pt 12.8981 8.37735 22.7883
Pt 11.2858 8.37732 25.0697
Pt 12.0917 9.77326 20.5095
Pt 10.4794 9.77323 22.7881
Pt 13.7043 9.77387 25.0697
Pt 9.67349 11.17 0
Pt 12.898 11.17 2.28144
Pt 11.2857 11.1699 4.55997
Pt 12.0919 12.5662 0
Pt 10.4796 12.5662 2.28142
Pt 13.7041 12.5662 4.55997
Pt 9.67346 11.1699 6.83845
Pt 12.898 11.1699 9.11694
Pt 11.2857 11.1698 11.3954
Pt 12.0918 12.5662 6.83841
Pt 10.4796 12.5661 9.11687
Pt 13.7041 12.5662 11.3953
Pt 9.67339 11.1697 13.6739
Pt 12.8978 11.1697 15.9523
Pt 11.2854 11.1694 18.2308
Pt 12.0918 12.566 13.6737
Pt 10.4794 12.5658 15.9522
Pt 13.7038 12.5657 18.2306
Pt 9.67309 11.1693 20.5093
Pt 12.8978 11.1695 22.7879
Pt 11.2856 11.1696 25.0694
Pt 12.0913 12.5654 20.509
Pt 10.479 12.5654 22.7877
Pt 13.704 12.5662 25.0692
Pt 9.67349 13.9625 0
Pt 12.898 13.9625 2.28142
Pt 11.2857 13.9624 4.55992
Pt 12.0919 15.3587 0
Pt 10.4796 15.3587 2.28141
Pt 13.7041 15.3587 4.55992
Pt 9.67347 13.9624 6.8384
Pt 12.898 13.9624 9.1168
Pt 11.2857 13.9623 11.3952
Pt 12.0919 15.3587 6.83833
Pt 10.4796 15.3586 9.11679
Pt 13.7041 15.3586 11.3951
Pt 9.67343 13.9622 13.6737
Pt 12.8978 13.9621 15.9519
Pt 11.2854 13.9618 18.2304
Pt 12.0918 15.3585 13.6735
Pt 10.4795 15.3583 15.952
Pt 13.7037 15.3581 18.2298
Pt 9.67291 13.9616 20.509
Pt 12.8969 13.9614 22.7873
Pt 11.285 13.9618 25.069
Pt 12.0909 15.3577 20.5084
Pt 10.4783 15.3576 22.7873
Pt 13.7031 15.3582 25.0682
Pt 9.67349 16.755 0
Pt 12.898 16.755 2.2814
Pt 11.2857 16.7549 4.55988
Pt 12.0919 18.1512 0
Pt 10.4796 18.1512 2.28139
Pt 13.7041 18.1512 4.55988
Pt 9.67348 16.7549 6.83836
Pt 12.898 16.7549 9.11666
Pt 11.2857 16.7548 11.3951
Pt 12.0919 18.1512 6.83826
Pt 10.4796 18.1512 9.11673
Pt 13.7041 18.1512 11.3949
Pt 9.67349 16.7548 13.6737
Pt 12.8978 16.7546 15.9515
Pt 11.2854 16.7544 18.2302
Pt 12.0918 18.1511 13.6733
Pt 10.4795 18.151 15.9519
Pt 13.7035 18.1507 18.2294
Pt 9.67295 16.7544 20.509
Pt 12.8956 16.7533 22.7861
Pt 11.2831 16.7536 25.0685
Pt 12.0909 18.1506 20.5082
Pt 10.4782 18.1505 22.7873
Pt 13.6983 18.1487 25.067
Pt 9.67349 19.5475 0
Pt 12.898 19.5475 2.28138
Pt 11.2857 19.5475 4.55986
Pt 12.0919 20.9437 0
Pt 10.4796 20.9437 2.28139
Pt 13.7041 20.9437 4.55986
Pt 9.6735 19.5474 6.83834
Pt 12.898 19.5474 9.11658
Pt 11.2857 19.5474 11.395
Pt 12.0919 20.9437 6.83824
Pt 10.4796 20.9437 9.11671
Pt 13.704 20.9437 11.3948
Pt 9.67353 19.5474 13.6736
Pt 12.8977 19.5473 15.9514
Pt 11.2854 19.5473 18.2302
Pt 12.0918 20.9437 13.6733
Pt 10.4795 20.9437 15.9519
Pt 13.7034 20.9437 18.2294
Pt 9.67301 19.5472 20.509
Pt 12.8956 19.5468 22.7863
Pt 11.282 19.5468 25.0686
Pt 12.0909 20.9437 20.5083
Pt 10.4782 20.9437 22.7873
Pt 13.6968 20.9437 25.0673
Pt 9.67349 22.34 0
Pt 12.898 22.34 2.28138
Pt 11.2857 22.34 4.55986
Pt 12.0919 23.7362 0
Pt 10.4796 23.7362 2.28139
Pt 13.7041 23.7362 4.55988
Pt 9.6735 22.34 6.83834
Pt 12.898 22.34 9.11658
Pt 11.2857 22.34 11.395
Pt 12.0919 23.7362 6.83826
Pt 10.4796 23.7363 9.11673
Pt 13.7041 23.7363 11.3949
Pt 9.67353 22.34 13.6736
Pt 12.8977 22.3401 15.9514
Pt 11.2854 22.3402 18.2302
Pt 12.0918 23.7364 13.6733
Pt 10.4795 23.7364 15.9519
Pt 13.7035 23.7367 18.2294
Pt 9.67301 22.3402 20.509
Pt 12.8956 22.3406 22.7863
Pt 11.282 22.3406 25.0686
Pt 12.0909 23.7369 20.5082
Pt 10.4782 23.7369 22.7873
Pt 13.6983 23.7387 25.067
Pt 9.67349 25.1325 0
Pt 12.898 25.1325 2.2814
Pt 11.2857 25.1325 4.55988
Pt 12.0919 26.5287 0
Pt 10.4796 26.5287 2.28141
Pt 13.7041 26.5287 4.55992
Pt 9.67348 25.1325 6.83836
Pt 12.898 25.1325 9.11666
Pt 11.2857 25.1326 11.3951
Pt 12.0919 26.5288 6.83832
Pt 10.4796 26.5288 9.11678
Pt 13.7041 26.5288 11.3951
Pt 9.67349 25.1327 13.6737
Pt 12.8978 25.1328 15.9515
Pt 11.2854 25.133 18.2302
Pt 12.0918 26.529 13.6735
Pt 10.4795 26.5291 15.952
Pt 13.7037 26.5294 18.2298
Pt 9.67295 25.1331 20.509
Pt 12.8956 25.1341 22.7861
Pt 11.2831 25.1338 25.0685
Pt 12.0909 26.5298 20.5083
Pt 10.4783 26.5299 22.7873
Pt 13.7031 26.5293 25.0682
Pt 9.67349 27.925 0
Pt 12.898 27.925 2.28142
Pt 11.2857 27.925 4.55992
Pt 12.0919 29.3212 0
Pt 10.4796 29.3212 2.28142
Pt 13.7041 29.3212 4.55997
Pt 9.67347 27.925 6.8384
Pt 12.898 27.925 9.1168
Pt 11.2857 27.9251 11.3952
Pt 12.0918 29.3213 6.83841
Pt 10.4796 29.3213 9.11686
Pt 13.7041 29.3213 11.3953
Pt 9.67343 27.9252 13.6737
Pt 12.8978 27.9254 15.9519
Pt 11.2854 27.9256 18.2304
Pt 12.0918 29.3215 13.6737
Pt 10.4794 29.3217 15.9522
Pt 13.7038 29.3217 18.2306
Pt 9.6729 27.9258 20.509
Pt 12.8969 27.926 22.7873
Pt 11.285 27.9257 25.069
Pt 12.0913 29.3221 20.509
Pt 10.479 29.3221 22.7877
Pt 13.704 29.3212 25.0692
Pt 9.67349 30.7174 0
Pt 12.898 30.7175 2.28144
Pt 11.2857 30.7175 4.55997
Pt 12.0919 32.1137 0
Pt 10.4796 32.1137 2.28144
Pt 13.7041 32.1137 4.56001
Pt 9.67346 30.7175 6.83845
Pt 12.898 30.7175 9.11694
Pt 11.2857 30.7176 11.3954
Pt 12.0918 32.1138 6.83848
Pt 10.4796 32.1138 9.11695
Pt 13.7041 32.1138 11.3955
Pt 9.67339 30.7177 13.6738
Pt 12.8978 30.7178 15.9523
Pt 11.2854 30.718 18.2307
Pt 12.0918 32.1139 13.6739
Pt 10.4794 32.1141 15.9524
Pt 13.704 32.114 18.231
Pt 9.67308 30.7182 20.5093
Pt 12.8978 30.7179 22.7879
Pt 11.2856 30.7178 25.0694
Pt 12.0917 32.1142 20.5095
Pt 10.4794 32.1142 22.7881
Pt 13.7043 32.1136 25.0697
Pt 9.67349 33.5099 0
Pt 12.898 33.51 2.28146
Pt 11.2857 33.51 4.56
Pt 12.0919 34.9062 0
Pt 10.4796 34.9062 2.28145
Pt 13.7041 34.9062 4.56003
Pt 9.67345 33.51 6.83849
Pt 12.898 33.51 9.11703
Pt 11.2857 33.5101 11.3955
Pt 12.0918 34.9062 6.83853
Pt 10.4796 34.9063 9.11702
Pt 13.7041 34.9063 11.3956
Pt 9.67338 33.5102 13.674
Pt 12.8979 33.5102 15.9526
Pt 11.2856 33.5103 18.231
Pt 12.0918 34.9063 13.6741
Pt 10.4795 34.9065 15.9526
Pt 13.7041 34.9063 18.2312
Pt 9.6733 33.5104 20.5095
Pt 12.8981 33.5101 22.7883
Pt 11.2858 33.5101 25.0697
Pt 12.0918 34.9064 20.5097
Pt 10.4796 34.9065 22.7882
Pt 13.7043 34.9061 25.0698
Pt 9.67349 36.3024 0
Pt 12.898 36.3025 2.28146
Pt 11.2857 36.3025 4.56003
Pt 12.0919 37.6987 0
Pt 10.4796 37.6987 2.28146
Pt 13.7041 37.6987 4.56004
Pt 9.67346 36.3025 6.83852
Pt 12.898 36.3025 9.11708
Pt 11.2857 36.3025 11.3956
Pt 12.0918 37.6987 6.83856
Pt 10.4796 37.6987 9.11706
Pt 13.7041 37.6987 11.3956
Pt 9.6734 36.3026 13.6741
Pt 12.8979 36.3026 15.9527
Pt 11.2857 36.3027 18.2312
Pt 12.0918 37.6988 13.6741
Pt 10.4795 37.6988 15.9526
Pt 13.7041 37.6987 18.2313
Pt 9.67344 36.3027 20.5097
Pt 12.8981 36.3025 22.7884
Pt 11.2859 36.3025 25.0698
Pt 12.0919 37.6988 20.5098
Pt 10.4797 37.6988 22.7883
Pt 13.7043 37.6986 25.0699
Pt 9.67349 39.0949 0
Pt 12.898 39.0949 2.28147
Pt 11.2857 39.095 4.56004
Pt 12.0919 40.4912 0
Pt 10.4796 40.4912 2.28146
Pt 13.7041 40.4912 4.56005
Pt 9.67346 39.095 6.83855
Pt 12.898 39.095 9.1171
Pt 11.2857 39.095 11.3956
Pt 12.0918 40.4912 6.83857
Pt 10.4796 40.4912 9.11708
Pt 13.7041 40.4912 11.3956
Pt 9.67343 39.095 13.6741
Pt 12.898 39.095 15.9527
Pt 11.2857 39.095 18.2312
Pt 12.0918 40.4912 13.6742
Pt 10.4796 40.4913 15.9527
Pt 13.7042 40.4912 18.2313
Pt 9.6735 39.0951 20.5097
Pt 12.8981 39.0949 22.7884
Pt 11.2859 39.095 25.0698
Pt 12.0919 40.4912 20.5098
Pt 10.4797 40.4912 22.7883
Pt 13.7043 40.4912 25.0699
Pt 9.67349 41.8874 0
Pt 12.898 41.8874 2.28147
Pt 11.2857 41.8874 4.56004
Pt 12.0919 43.2837 0
Pt 10.4796 43.2837 2.28147
Pt 13.7041 43.2837 4.56005
Pt 9.67346 41.8874 6.83856
Pt 12.898 41.8874 9.11711
Pt 11.2857 41.8875 11.3956
Pt 12.0918 43.2837 6.83857
Pt 10.4796 43.2837 9.11709
Pt 13.7041 43.2837 11.3957
Pt 9.67345 41.8875 13.6741
Pt 12.898 41.8875 15.9527