ITEM: TIMESTEP
0
ITEM: NUMBER OF ATOMS
3074
ITEM: BOX BOUNDS pp pp pp
0.0000000000000000e+00 3.8693948398131120e+01
0.0000000000000000e+00 4.4679925159782847e+01
0.0000000000000000e+00 6.0000000000000000e+01
ITEM: ATOMS id type x y z v_stress_xx v_stress_yy v_stress_zz v_stress_xy v_stress_xz v_stress_yz
1 2 0 0 0 2596.05 2596.03 -99.0249 1.91195e-06 -0.00342633 -2.1252e-06
2 2 3.2245 0 2.279 -1940.76 -1940.9 5336.46 3.88838e-07 -0.0237813 -5.57384e-06
3 2 1.61225 0 4.55799 -2804.09 -2804.23 -877.783 8.07227e-10 -0.0237749 -2.9012e-06
4 2 2.41837 1.39625 0 2596.05 2596.03 -99.0249 -1.62668e-06 -0.00342843 -3.94786e-06
5 2 0.806124 1.39625 2.279 -1940.76 -1940.9 5336.46 -3.57305e-07 -0.0237766 -1.09074e-05
6 2 4.03062 1.39625 4.55799 -2804.09 -2804.23 -877.783 1.25861e-05 -0.0237741 -2.7909e-06
7 2 0 0 6.83699 -2812.33 -2812.48 -1020.96 -4.24845e-06 -0.0353546 8.32758e-06
8 2 3.2245 0 9.11598 -2812.36 -2812.5 -1021.14 -3.55535e-06 -0.0237697 6.0128e-06
9 2 1.61225 0 11.395 -2812.36 -2812.5 -1021.13 9.48729e-08 -0.0237747 -3.56221e-07
10 2 2.41837 1.39625 6.83699 -2812.33 -2812.48 -1020.96 3.13788e-06 -0.0353458 1.49744e-05
11 2 0.806124 1.39625 9.11598 -2812.36 -2812.5 -1021.14 2.54114e-06 -0.0237753 1.1964e-05
12 2 4.03062 1.39625 11.395 -2812.36 -2812.5 -1021.13 -5.19421e-06 -0.023769 7.2032e-06
13 2 0 0 13.674 -2812.34 -2812.49 -1021.06 -1.59304e-06 -0.0353459 -5.11663e-07
14 2 3.2245 0 15.953 -2812.36 -2812.5 -1021.14 6.7672e-06 -0.0237746 8.50535e-07
15 2 1.61225 0 18.232 -2812.36 -2812.49 -1021.04 -4.82927e-07 -0.0237751 3.19552e-06
16 2 2.41837 1.39625 13.674 -2812.34 -2812.49 -1021.06 2.28988e-06 -0.0353438 -6.51968e-07
17 2 0.806124 1.39625 15.953 -2812.36 -2812.5 -1021.14 -4.13052e-06 -0.0237758 8.48536e-07
18 2 4.03062 1.39625 18.232 -2812.36 -2812.49 -1021.04 -9.45218e-06 -0.0237845 -9.21113e-06
19 2 0 0 20.511 -2804.07 -2804.22 -877.708 1.58618e-06 -0.0353449 -1.23643e-06
20 2 3.2245 0 22.79 -1940.76 -1940.9 5336.46 -4.19549e-06 -0.0237802 -1.39021e-06
21 2 1.61225 0 25.069 1828.61 1828.6 -69.7617 -5.34865e-08 -0.000833354 -6.54525e-07
22 2 2.41837 1.39625 20.511 -2804.07 -2804.22 -877.708 -6.82312e-06 -0.0353502 -2.97197e-06
23 2 0.806124 1.39625 22.79 -1940.76 -1940.9 5336.46 4.68088e-06 -0.0237778 -2.09736e-06
24 2 4.03062 1.39625 25.069 1828.61 1828.6 -69.7617 -3.98716e-06 -0.000832815 5.56448e-07
25 2 0 2.7925 0 2596.05 2596.03 -99.0249 3.30998e-06 -0.00342844 -3.50358e-06
26 2 3.2245 2.7925 2.279 -1940.76 -1940.9 5336.46 8.24505e-07 -0.0237738 -9.42997e-06
27 2 1.61225 2.7925 4.55799 -2804.09 -2804.23 -877.783 1.15356e-08 -0.023775 -6.4429e-06
28 2 2.41837 4.18874 0 2596.05 2596.03 -99.0249 -1.19841e-06 -0.00342708 -2.93158e-06
29 2 0.806124 4.18874 2.279 -1940.76 -1940.9 5336.46 -4.5311e-07 -0.0237807 -7.68752e-06
30 2 4.03062 4.18874 4.55799 -2804.09 -2804.23 -877.784 5.92416e-06 -0.0237711 -6.838e-06
31 2 0 2.7925 6.83699 -2812.33 -2812.48 -1020.96 -5.10171e-06 -0.0353418 9.02119e-06
32 2 3.2245 2.7925 9.11598 -2812.36 -2812.5 -1021.14 -1.011e-06 -0.0237764 1.20743e-05
33 2 1.61225 2.7925 11.395 -2812.36 -2812.5 -1021.13 1.13603e-07 -0.023775 9.41098e-06
34 2 2.41837 4.18874 6.83699 -2812.33 -2812.48 -1020.96 9.1951e-07 -0.0353509 3.42809e-06
35 2 0.806124 4.18874 9.11598 -2812.36 -2812.5 -1021.14 -2.36835e-06 -0.0237745 1.02222e-05
36 2 4.03062 4.18874 11.395 -2812.36 -2812.5 -1021.13 9.81542e-06 -0.0237662 1.48788e-05
37 2 0 2.7925 13.674 -2812.34 -2812.49 -1021.06 -3.40143e-06 -0.0353538 5.38919e-06
38 2 3.2245 2.7925 15.953 -2812.36 -2812.5 -1021.14 -7.63243e-06 -0.02378 -4.42477e-06
39 2 1.61225 2.7925 18.232 -2812.36 -2812.49 -1021.04 -5.72499e-07 -0.0237749 -7.27676e-06
40 2 2.41837 4.18874 13.674 -2812.34 -2812.49 -1021.06 -9.75668e-07 -0.035347 1.09902e-05
41 2 0.806124 4.18874 15.953 -2812.36 -2812.5 -1021.14 1.32331e-05 -0.0237667 -6.06521e-06
42 2 4.03062 4.18874 18.232 -2812.36 -2812.49 -1021.04 -4.48579e-05 -0.0237922 -1.66004e-05
43 2 0 2.7925 20.511 -2804.07 -2804.22 -877.708 2.52998e-05 -0.0353382 -8.86538e-06
44 2 3.2245 2.7925 22.79 -1940.76 -1940.9 5336.46 -1.04248e-05 -0.0237787 -1.41792e-06
45 2 1.61225 2.7925 25.069 1828.61 1828.6 -69.7617 7.11345e-08 -0.000833424 5.13263e-08
46 2 2.41837 4.18874 20.511 -2804.07 -2804.22 -877.708 -1.38062e-05 -0.0353483 -1.4057e-05
47 2 0.806124 4.18874 22.79 -1940.76 -1940.9 5336.46 2.15297e-06 -0.0237816 -1.03592e-06
48 2 4.03062 4.18874 25.069 1828.61 1828.6 -69.7617 5.32702e-06 -0.000831118 1.68429e-06
49 2 0 5.58499 0 2596.05 2596.03 -99.0249 6.54481e-07 -0.00343086 -5.54141e-07
50 2 3.2245 5.58499 2.279 -1940.76 -1940.9 5336.46 6.91825e-07 -0.0237692 -1.87606e-06
51 2 1.61225 5.58499 4.55799 -2804.09 -2804.23 -877.784 -1.42452e-10 -0.023775 -4.43668e-06
52 2 2.41837 6.98124 0 2596.05 2596.03 -99.0249 6.22971e-07 -0.00342614 1.06506e-06
53 2 0.806124 6.98124 2.279 -1940.76 -1940.9 5336.46 -2.67234e-07 -0.0237808 3.64184e-06
54 2 4.03062 6.98124 4.55799 -2804.09 -2804.23 -877.784 -5.02064e-06 -0.023773 -3.29542e-06
55 2 0 5.58499 6.83699 -2812.33 -2812.48 -1020.96 -7.61953e-07 -0.0353403 -1.95218e-06
56 2 3.2245 5.58499 9.11598 -2812.36 -2812.5 -1021.14 9.9762e-06 -0.0237704 1.10202e-05
57 2 1.61225 5.58499 11.395 -2812.36 -2812.5 -1021.13 1.76664e-07 -0.0237754 2.14777e-05
58 2 2.41837 6.98124 6.83699 -2812.33 -2812.48 -1020.96 8.50378e-08 -0.0353466 -6.30682e-06
59 2 0.806124 6.98124 9.11598 -2812.36 -2812.5 -1021.13 -6.48316e-06 -0.0237804 8.47076e-06
60 2 4.03062 6.98124 11.395 -2812.36 -2812.5 -1021.13 -8.61962e-06 -0.0237952 -6.88454e-06
61 2 0 5.58499 13.674 -2812.34 -2812.49 -1021.06 1.88278e-05 -0.0353277 -3.9334e-06
62 2 3.2245 5.58499 15.953 -2812.36 -2812.5 -1021.14 -3.69093e-05 -0.0237985 -1.97688e-05
63 2 1.61225 5.58499 18.232 -2812.36 -2812.49 -1021.04 -1.1499e-07 -0.0237746 -2.99935e-05
64 2 2.41837 6.98124 13.674 -2812.34 -2812.49 -1021.06 -1.84666e-05 -0.0353669 -1.0925e-05
65 2 0.806124 6.98124 15.953 -2812.36 -2812.5 -1021.14 1.8055e-05 -0.0237624 -2.74525e-05
66 2 4.03062 6.98124 18.232 -2812.36 -2812.49 -1021.04 6.34494e-05 -0.0237205 3.22675e-05
67 2 0 5.58499 20.511 -2804.07 -2804.22 -877.708 -1.64988e-05 -0.0353659 2.58199e-06
68 2 3.2245 5.58499 22.79 -1940.76 -1940.9 5336.46 2.61395e-05 -0.0237679 6.74397e-06
69 2 1.61225 5.58499 25.069 1828.61 1828.6 -69.7617 1.36758e-07 -0.000833457 3.50874e-06
70 2 2.41837 6.98124 20.511 -2804.07 -2804.22 -877.708 4.20584e-05 -0.0353213 9.83491e-06
71 2 0.806124 6.98124 22.79 -1940.76 -1940.9 5336.46 -3.08911e-05 -0.0237866 1.1685e-05
72 2 4.03062 6.98124 25.069 1828.61 1828.6 -69.7617 1.51775e-05 -0.00083849 -3.0364e-06
73 2 0 8.37749 0 2596.05 2596.03 -99.0249 -2.48755e-06 -0.00343148 2.41999e-06
74 2 3.2245 8.37749 2.279 -1940.76 -1940.9 5336.46 2.23331e-07 -0.0237727 6.12584e-06
75 2 1.61225 8.37749 4.55799 -2804.09 -2804.23 -877.784 -7.81199e-08 -0.0237749 1.56402e-06
76 2 2.41837 9.77373 0 2596.05 2596.03 -99.0249 1.64272e-06 -0.00342643 3.37841e-06
77 2 0.806124 9.77373 2.279 -1940.76 -1940.9 5336.46 1.07681e-07 -0.0237776 8.8352e-06
78 2 4.03062 9.77373 4.55799 -2804.09 -2804.23 -877.783 -4.35462e-06 -0.0237709 7.52252e-06
79 2 0 8.37749 6.83699 -2812.33 -2812.48 -1020.96 -3.41074e-06 -0.0353558 1.36631e-06
80 2 3.2245 8.37749 9.11598 -2812.36 -2812.5 -1021.14 7.08987e-06 -0.0237687 7.22221e-06
81 2 1.61225 8.37749 11.395 -2812.36 -2812.5 -1021.13 4.43059e-07 -0.0237753 4.6883e-06
82 2 2.41837 9.77373 6.83699 -2812.33 -2812.48 -1020.96 3.59518e-06 -0.0353368 4.54381e-06
83 2 0.806124 9.77373 9.11598 -2812.36 -2812.5 -1021.13 -1.71869e-07 -0.023775 9.52701e-06
84 2 4.03062 9.77373 11.395 -2812.36 -2812.5 -1021.13 -4.56741e-05 -0.0238393 -3.37086e-05
85 2 0 8.37749 13.674 -2812.34 -2812.49 -1021.06 3.91317e-05 -0.0353038 -2.90169e-05
86 2 3.2245 8.37749 15.953 -2812.36 -2812.5 -1021.13 6.18015e-06 -0.0237592 -1.14274e-05
87 2 1.61225 8.37749 18.232 -2812.36 -2812.49 -1021.04 -3.24884e-07 -0.0237745 -6.11466e-06
88 2 2.41837 9.77373 13.674 -2812.34 -2812.49 -1021.06 -1.95418e-05 -0.0353648 -4.27235e-05
89 2 0.806124 9.77373 15.953 -2812.36 -2812.5 -1021.13 -2.76947e-05 -0.0238095 -1.98135e-05
90 2 4.03062 9.77373 18.232 -2812.36 -2812.49 -1021.04 0.000157504 -0.0236666 4.84335e-05
91 2 0 8.37749 20.511 -2804.07 -2804.22 -877.708 -0.000119056 -0.0353993 3.00471e-05
92 2 3.2245 8.37749 22.79 -1940.76 -1940.9 5336.46 4.69874e-05 -0.0237808 5.27276e-06
93 2 1.61225 8.37749 25.069 1828.61 1828.6 -69.7617 4.62794e-09 -0.000833379 1.60378e-06
94 2 2.41837 9.77373 20.511 -2804.07 -2804.22 -877.708 7.68909e-05 -0.0353207 4.71753e-05
95 2 0.806124 9.77373 22.79 -1940.76 -1940.9 5336.46 -1.66389e-05 -0.0237678 8.66566e-06
96 2 4.03062 9.77373 25.069 1828.61 1828.6 -69.7617 -2.21093e-05 -0.000845013 -4.22043e-06
97 2 0 11.17 0 2596.05 2596.03 -99.0249 -2.95528e-06 -0.00342978 3.02944e-06
98 2 3.2245 11.17 2.279 -1940.76 -1940.9 5336.46 -4.74376e-07 -0.0237788 7.22831e-06
99 2 1.61225 11.17 4.55799 -2804.09 -2804.23 -877.783 -1.70399e-07 -0.0237749 5.71295e-06
100 2 2.41837 12.5662 0 2596.05 2596.03 -99.0249 1.26355e-06 -0.00342776 3.59453e-06
101 2 0.806124 12.5662 2.279 -1940.76 -1940.9 5336.46 5.21164e-07 -0.0237747 6.75019e-06
102 2 4.03062 12.5662 4.55799 -2804.09 -2804.23 -877.783 1.9219e-06 -0.0237601 1.29534e-05
103 2 0 11.17 6.83699 -2812.33 -2812.48 -1020.96 -7.80516e-06 -0.0353672 1.13627e-05
104 2 3.2245 11.17 9.11598 -2812.36 -2812.5 -1021.14 -9.67405e-06 -0.0237959 -2.32331e-06
105 2 1.61225 11.17 11.395 -2812.36 -2812.5 -1021.14 1.31235e-07 -0.0237748 -2.50011e-05
106 2 2.41837 12.5662 6.83699 -2812.33 -2812.48 -1020.96 4.87687e-06 -0.0353345 1.41713e-05
107 2 0.806124 12.5662 9.11598 -2812.36 -2812.5 -1021.14 8.95945e-06 -0.0237543 6.89503e-07
108 2 4.03062 12.5662 11.395 -2812.36 -2812.5 -1021.13 -3.80085e-05 -0.0238291 -2.36579e-05
109 2 0 11.17 13.674 -2812.34 -2812.49 -1021.06 -2.46717e-06 -0.0353674 -1.95599e-05
110 2 3.2245 11.17 15.953 -2812.36 -2812.5 -1021.13 0.000107532 -0.0236395 3.53048e-05
111 2 1.61225 11.17 18.232 -2812.36 -2812.49 -1021.04 1.31154e-06 -0.0237762 7.20589e-05
112 2 2.41837 12.5662 13.674 -2812.34 -2812.49 -1021.06 1.37151e-05 -0.0353065 -3.24782e-05
113 2 0.806124 12.5662 15.953 -2812.36 -2812.5 -1021.13 -8.15104e-05 -0.0238909 3.71618e-05
114 2 4.03062 12.5662 18.232 -2812.36 -2812.5 -1021.04 7.21758e-06 -0.0238164 -2.92972e-05
115 2 0 11.17 20.511 -2804.07 -2804.22 -877.709 -1.76962e-05 -0.0353113 1.19954e-06
116 2 3.2245 11.17 22.79 -1940.76 -1940.9 5336.46 -4.01654e-05 -0.0238185 -1.11749e-05
117 2 1.61225 11.17 25.069 1828.61 1828.6 -69.7617 -3.51997e-07 -0.000833546 -6.12456e-06
118 2 2.41837 12.5662 20.511 -2804.07 -2804.22 -877.709 -2.10226e-05 -0.0354002 1.60308e-05
119 2 0.806124 12.5662 22.79 -1940.76 -1940.9 5336.46 3.49529e-05 -0.0237516 -8.40568e-06
120 2 4.03062 12.5662 25.069 1828.61 1828.6 -69.7617 -5.92324e-05 -0.000823075 7.07205e-06
121 2 0 13.9625 0 2596.05 2596.03 -99.0249 -1.55199e-06 -0.00342687 2.74854e-06
122 2 3.2245 13.9625 2.279 -1940.76 -1940.9 5336.46 -1.12467e-06 -0.0237822 4.66543e-06
123 2 1.61225 13.9625 4.55799 -2804.09 -2804.23 -877.783 -1.72479e-07 -0.023775 5.04585e-06
124 2 2.41837 15.3587 0 2596.05 2596.03 -99.0249 4.76529e-07 -0.00342933 3.22635e-06
125 2 0.806124 15.3587 2.279 -1940.76 -1940.9 5336.46 7.14522e-07 -0.0237737 3.50513e-06
126 2 4.03062 15.3587 4.55799 -2804.09 -2804.23 -877.783 3.41608e-06 -0.0237487 9.10178e-06
127 2 0 13.9625 6.83699 -2812.33 -2812.48 -1020.96 -4.06018e-06 -0.0353577 7.8818e-06
128 2 3.2245 13.9625 9.11598 -2812.36 -2812.5 -1021.14 -2.00498e-05 -0.0238325 -1.40358e-05
129 2 1.61225 13.9625 11.395 -2812.36 -2812.5 -1021.13 -8.84037e-07 -0.0237746 -3.92131e-05
130 2 2.41837 15.3587 6.83699 -2812.33 -2812.48 -1020.96 1.6667e-06 -0.035343 8.21291e-06
131 2 0.806124 15.3587 9.11598 -2812.36 -2812.5 -1021.14 1.09775e-05 -0.0237364 -1.11803e-05
132 2 4.03062 15.3587 11.395 -2812.36 -2812.5 -1021.13 6.33724e-06 -0.0237315 8.08456e-06
133 2 0 13.9625 13.674 -2812.34 -2812.49 -1021.06 -7.45924e-05 -0.0355184 2.32409e-05
134 2 3.2245 13.9625 15.953 -2812.36 -2812.5 -1021.13 0.000112044 -0.0236087 5.06748e-05
135 2 1.61225 13.9625 18.232 -2812.36 -2812.49 -1021.04 4.22912e-06 -0.0237773 8.04666e-05
136 2 2.41837 15.3587 13.674 -2812.34 -2812.49 -1021.06 4.75539e-05 -0.035214 1.02535e-05
137 2 0.806124 15.3587 15.953 -2812.36 -2812.5 -1021.13 -6.23085e-05 -0.0238937 6.35677e-05
138 2 4.03062 15.3587 18.232 -2812.36 -2812.5 -1021.04 -0.00014447 -0.0240625 -8.70333e-05
139 2 0 13.9625 20.511 -2804.07 -2804.22 -877.709 0.000142584 -0.0351664 -3.8797e-05
140 2 3.2245 13.9625 22.79 -1940.76 -1940.9 5336.46 -0.000121971 -0.0238408 -1.82325e-05
141 2 1.61225 13.9625 25.069 1828.61 1828.6 -69.7617 -8.27648e-07 -0.000833434 -7.32543e-06
142 2 2.41837 15.3587 20.511 -2804.07 -2804.22 -877.71 -7.73048e-05 -0.0354583 -1.90955e-05
143 2 0.806124 15.3587 22.79 -1940.76 -1940.9 5336.46 3.9692e-05 -0.0237553 -1.08409e-05
144 2 4.03062 15.3587 25.069 1828.61 1828.6 -69.7616 -2.2378e-05 -0.000776086 1.65677e-05
145 2 0 16.755 0 2596.05 2596.03 -99.0249 -3.27635e-07 -0.00342421 2.31837e-06
146 2 3.2245 16.755 2.279 -1940.76 -1940.9 5336.46 -1.19291e-06 -0.0237827 2.49959e-06
147 2 1.61225 16.755 4.55799 -2804.09 -2804.23 -877.783 -9.15438e-08 -0.0237752 2.52219e-06
148 2 2.41837 18.1512 0 2596.05 2596.03 -99.0249 5.64916e-08 -0.00343049 2.14497e-06
149 2 0.806124 18.1512 2.279 -1940.76 -1940.9 5336.46 5.05114e-07 -0.0237738 1.56227e-06
150 2 4.03062 18.1512 4.55799 -2804.09 -2804.23 -877.783 1.41167e-06 -0.0237436 3.42246e-06
151 2 0 16.755 6.83699 -2812.33 -2812.48 -1020.96 2.01362e-06 -0.0353365 -1.41725e-06
152 2 3.2245 16.755 9.11598 -2812.36 -2812.5 -1021.14 -1.71451e-05 -0.0238529 -1.73699e-05
153 2 1.61225 16.755 11.395 -2812.36 -2812.5 -1021.13 -1.52255e-06 -0.0237757 -3.19549e-05
154 2 2.41837 18.1512 6.83699 -2812.33 -2812.48 -1020.96 -7.38684e-07 -0.0353534 6.10184e-07
155 2 0.806124 18.1512 9.11598 -2812.36 -2812.5 -1021.14 6.68708e-06 -0.0237291 -1.1728e-05
156 2 4.03062 18.1512 11.395 -2812.36 -2812.5 -1021.13 2.2597e-05 -0.0236218 1.65873e-05
157 2 0 16.755 13.674 -2812.34 -2812.49 -1021.06 -8.27398e-05 -0.0356298 3.75783e-05
158 2 3.2245 16.755 15.953 -2812.36 -2812.5 -1021.14 4.14664e-05 -0.0237089 2.30136e-05
159 2 1.61225 16.755 18.232 -2812.36 -2812.5 -1021.04 3.64915e-06 -0.0237739 2.96758e-05
160 2 2.41837 18.1512 13.674 -2812.33 -2812.49 -1021.06 3.88042e-05 -0.0351555 2.36621e-05
161 2 0.806124 18.1512 15.953 -2812.36 -2812.5 -1021.13 -1.83555e-05 -0.0238283 3.56097e-05
162 2 4.03062 18.1512 18.232 -2812.36 -2812.49 -1021.04 -0.000158629 -0.0243259 -7.84854e-05
163 2 0 16.755 20.511 -2804.07 -2804.22 -877.709 0.000179593 -0.0350472 -4.23788e-05
164 2 3.2245 16.755 22.79 -1940.76 -1940.9 5336.46 -0.000126802 -0.0238127 -9.48533e-06
165 2 1.61225 16.755 25.069 1828.61 1828.6 -69.7617 -6.93266e-07 -0.000832308 -2.85067e-06
166 2 2.41837 18.1512 20.511 -2804.07 -2804.22 -877.71 -5.53956e-05 -0.0354754 -1.93304e-05
167 2 0.806124 18.1512 22.79 -1940.76 -1940.9 5336.46 2.70623e-05 -0.0237631 -7.64319e-06
168 2 4.03062 18.1512 25.069 1828.61 1828.6 -69.7616 1.88291e-05 -0.000749936 1.07549e-05
169 2 0 19.5475 0 2596.05 2596.03 -99.0249 2.13225e-08 -0.00342271 9.91582e-07
170 2 3.2245 19.5475 2.279 -1940.76 -1940.9 5336.46 -5.07012e-07 -0.0237823 8.7447e-07
171 2 1.61225 19.5475 4.55799 -2804.09 -2804.23 -877.783 -2.16131e-08 -0.0237752 6.96451e-07
172 2 2.41837 20.9437 0 2596.05 2596.03 -99.0249 1.25298e-10 -0.00343091 3.53059e-09
173 2 0.806124 20.9437 2.279 -1940.76 -1940.9 5336.46 1.31372e-09 -0.023774 2.20405e-09
174 2 4.03062 20.9437 4.55799 -2804.09 -2804.23 -877.783 1.34933e-09 -0.0237427 3.60086e-09
175 2 0 19.5475 6.83699 -2812.33 -2812.48 -1020.96 1.99709e-06 -0.0353213 -2.40391e-06
176 2 3.2245 19.5475 9.11598 -2812.36 -2812.5 -1021.14 -6.41999e-06 -0.0238572 -7.85814e-06
177 2 1.61225 19.5475 11.395 -2812.36 -2812.5 -1021.13 -7.63057e-07 -0.0237773 -1.1735e-05
178 2 2.41837 20.9437 6.83699 -2812.33 -2812.48 -1020.96 -2.06258e-09 -0.0353578 -1.64413e-09
179 2 0.806124 20.9437 9.11598 -2812.36 -2812.5 -1021.14 9.95579e-09 -0.0237279 -1.91578e-08
180 2 4.03062 20.9437 11.395 -2812.36 -2812.5 -1021.13 4.05196e-08 -0.0235789 2.83479e-08
181 2 0 19.5475 13.674 -2812.34 -2812.49 -1021.06 -3.18338e-05 -0.0356572 1.55041e-05
182 2 3.2245 19.5475 15.953 -2812.36 -2812.5 -1021.14 5.12762e-06 -0.0237926 3.94844e-06
183 2 1.61225 19.5475 18.232 -2812.36 -2812.5 -1021.04 1.23252e-06 -0.0237702 4.07119e-06
184 2 2.41837 20.9437 13.674 -2812.33 -2812.49 -1021.06 5.85081e-08 -0.0351412 4.08243e-08
185 2 0.806124 20.9437 15.953 -2812.36 -2812.5 -1021.13 -1.4815e-08 -0.023795 4.59664e-08
186 2 4.03062 20.9437 18.232 -2812.36 -2812.49 -1021.04 -2.65388e-07 -0.024438 -1.24534e-07
187 2 0 19.5475 20.511 -2804.07 -2804.22 -877.709 7.62329e-05 -0.0350021 -1.57441e-05
188 2 3.2245 19.5475 22.79 -1940.76 -1940.89 5336.46 -4.11199e-05 -0.0237393 7.09875e-07
189 2 1.61225 19.5475 25.069 1828.61 1828.6 -69.7617 -2.0374e-07 -0.000830948 -1.17897e-07
190 2 2.41837 20.9437 20.511 -2804.07 -2804.22 -877.71 -8.13894e-08 -0.0354793 -3.0085e-08
191 2 0.806124 20.9437 22.79 -1940.76 -1940.9 5336.46 4.09153e-08 -0.0237709 -1.11053e-08
192 2 4.03062 20.9437 25.069 1828.61 1828.6 -69.7616 4.00978e-08 -0.000747736 1.41472e-08
385 2 4.83674 0 0 2596.05 2596.03 -99.0249 -3.15979e-06 -0.00343052 -1.17099e-06
386 2 8.06124 0 2.279 -1940.76 -1940.9 5336.46 1.22657e-08 -0.0237821 6.84153e-06
387 2 6.44899 0 4.55799 -2804.09 -2804.23 -877.783 7.95867e-06 -0.0237795 2.43347e-06
388 2 7.25512 1.39625 0 2596.05 2596.03 -99.0249 -5.18053e-06 -0.00342821 1.43799e-06
389 2 5.64287 1.39625 2.279 -1940.76 -1940.9 5336.46 5.22058e-07 -0.023779 8.59728e-07
390 2 8.86736 1.39625 4.55799 -2804.09 -2804.23 -877.783 2.40544e-06 -0.02378 6.10248e-06
391 2 4.83674 0 6.83699 -2812.33 -2812.48 -1020.96 6.36905e-06 -0.0353356 1.56303e-06
392 2 8.06124 0 9.11598 -2812.36 -2812.5 -1021.14 4.64346e-06 -0.0237652 -1.78801e-06
393 2 6.44899 0 11.395 -2812.36 -2812.5 -1021.13 1.34938e-06 -0.0237655 7.65389e-06
394 2 7.25512 1.39625 6.83699 -2812.33 -2812.48 -1020.96 9.93305e-06 -0.0353438 -9.15306e-06
395 2 5.64287 1.39625 9.11598 -2812.36 -2812.5 -1021.14 -5.35203e-07 -0.0237681 2.41935e-06
396 2 8.86736 1.39625 11.395 -2812.36 -2812.5 -1021.13 6.42175e-06 -0.0237698 5.77581e-07
397 2 4.83674 0 13.674 -2812.34 -2812.49 -1021.06 2.76945e-06 -0.0353459 5.81685e-06
398 2 8.06124 0 15.953 -2812.36 -2812.5 -1021.14 -2.04263e-05 -0.0237839 -1.46122e-05
399 2 6.44899 0 18.232 -2812.36 -2812.49 -1021.04 -2.10584e-05 -0.023786 -1.4958e-05
400 2 7.25512 1.39625 13.674 -2812.34 -2812.49 -1021.06 -1.11484e-05 -0.0353528 -3.88819e-06
401 2 5.64287 1.39625 15.953 -2812.36 -2812.5 -1021.14 -1.13934e-05 -0.0237836 -9.22162e-06
402 2 8.86736 1.39625 18.232 -2812.36 -2812.49 -1021.04 -1.54191e-05 -0.0237748 2.13763e-06
403 2 4.83674 0 20.511 -2804.07 -2804.22 -877.708 -1.11348e-05 -0.0353517 -7.41902e-06
404 2 8.06124 0 22.79 -1940.76 -1940.9 5336.46 -8.90877e-07 -0.0237788 5.47175e-06
405 2 6.44899 0 25.069 1828.61 1828.6 -69.7617 -2.24754e-06 -0.000833081 1.67612e-06
406 2 7.25512 1.39625 20.511 -2804.07 -2804.22 -877.708 -1.06152e-05 -0.0353445 3.20054e-06
407 2 5.64287 1.39625 22.79 -1940.76 -1940.9 5336.46 -8.86358e-06 -0.0237782 1.73586e-06
408 2 8.86736 1.39625 25.069 1828.61 1828.6 -69.7617 9.37449e-06 -0.000833697 8.28549e-07
409 2 4.83674 2.7925 0 2596.05 2596.03 -99.0249 -5.50861e-06 -0.00342713 -1.49638e-06
410 2 8.06124 2.7925 2.279 -1940.76 -1940.9 5336.46 -1.67146e-06 -0.0237749 9.38562e-06
411 2 6.44899 2.7925 4.55799 -2804.09 -2804.23 -877.783 1.13267e-05 -0.0237737 -4.30081e-07
412 2 7.25512 4.18874 0 2596.05 2596.03 -99.0249 -4.35393e-06 -0.00342514 2.11046e-06
413 2 5.64287 4.18874 2.279 -1940.76 -1940.9 5336.46 -1.84738e-07 -0.0237672 -4.40173e-07
414 2 8.86736 4.18874 4.55799 -2804.09 -2804.23 -877.783 3.25004e-06 -0.0237706 8.2913e-06
415 2 4.83674 2.7925 6.83699 -2812.33 -2812.48 -1020.96 1.02666e-05 -0.0353519 2.0961e-06
416 2 8.06124 2.7925 9.11598 -2812.36 -2812.5 -1021.14 1.40794e-05 -0.0237637 5.01102e-06
417 2 6.44899 2.7925 11.395 -2812.36 -2812.5 -1021.13 5.24144e-07 -0.0237699 7.122e-06
418 2 7.25512 4.18874 6.83699 -2812.33 -2812.48 -1020.96 1.91459e-05 -0.0353408 8.30831e-06
419 2 5.64287 4.18874 9.11598 -2812.36 -2812.5 -1021.14 1.25896e-05 -0.0237722 1.62063e-05
420 2 8.86736 4.18874 11.395 -2812.36 -2812.5 -1021.13 -3.30239e-05 -0.0238063 -4.49946e-05
421 2 4.83674 2.7925 13.674 -2812.34 -2812.49 -1021.06 -5.41667e-06 -0.0353451 -1.66485e-06
422 2 8.06124 2.7925 15.953 -2812.36 -2812.5 -1021.13 -2.57485e-05 -0.0237873 -1.29442e-05
423 2 6.44899 2.7925 18.232 -2812.36 -2812.49 -1021.04 -2.19525e-05 -0.0237807 -6.30091e-06
424 2 7.25512 4.18874 13.674 -2812.34 -2812.49 -1021.06 -4.25147e-05 -0.0353757 -3.70153e-05
425 2 5.64287 4.18874 15.953 -2812.36 -2812.5 -1021.14 -3.71373e-05 -0.0237931 -2.29985e-05
426 2 8.86736 4.18874 18.232 -2812.36 -2812.49 -1021.04 0.000126821 -0.0237157 8.7674e-05
427 2 4.83674 2.7925 20.511 -2804.07 -2804.22 -877.708 -2.29231e-05 -0.0353514 -2.61127e-06
428 2 8.06124 2.7925 22.79 -1940.76 -1940.9 5336.46 3.62992e-05 -0.0237735 8.59283e-06
429 2 6.44899 2.7925 25.069 1828.61 1828.6 -69.7617 8.51041e-06 -0.000832805 1.23424e-06
430 2 7.25512 4.18874 20.511 -2804.07 -2804.22 -877.708 9.1022e-05 -0.0353149 4.31748e-05
431 2 5.64287 4.18874 22.79 -1940.76 -1940.9 5336.46 3.38795e-05 -0.0237702 1.07096e-05
432 2 8.86736 4.18874 25.069 1828.61 1828.6 -69.7617 -1.39102e-05 -0.000839327 -8.19415e-06
433 2 4.83674 5.58499 0 2596.05 2596.03 -99.0249 -1.33902e-06 -0.00342368 6.74153e-07
434 2 8.06124 5.58499 2.279 -1940.76 -1940.9 5336.46 -3.25456e-06 -0.0237701 4.41937e-07
435 2 6.44899 5.58499 4.55799 -2804.09 -2804.23 -877.783 1.88469e-06 -0.0237648 -4.55292e-06
436 2 7.25512 6.98124 0 2596.05 2596.03 -99.0249 4.34511e-07 -0.0034251 1.08461e-06
437 2 5.64287 6.98124 2.279 -1940.76 -1940.9 5336.46 -3.42594e-07 -0.0237655 -1.08696e-06
438 2 8.86736 6.98124 4.55799 -2804.09 -2804.23 -877.783 6.57985e-06 -0.0237495 1.28817e-05
439 2 4.83674 5.58499 6.83699 -2812.33 -2812.48 -1020.96 5.98165e-06 -0.0353507 4.98946e-06
440 2 8.06124 5.58499 9.11598 -2812.36 -2812.5 -1021.14 -3.67949e-06 -0.023791 -9.98469e-06
441 2 6.44899 5.58499 11.395 -2812.36 -2812.5 -1021.13 -2.37345e-05 -0.0238065 -2.66816e-05
442 2 7.25512 6.98124 6.83699 -2812.33 -2812.48 -1020.96 1.15716e-05 -0.0353347 1.68398e-05
443 2 5.64287 6.98124 9.11598 -2812.36 -2812.5 -1021.14 3.66917e-06 -0.023782 2.90757e-06
444 2 8.86736 6.98124 11.395 -2812.36 -2812.5 -1021.13 -1.91662e-05 -0.0237884 -7.92964e-06
445 2 4.83674 5.58499 13.674 -2812.34 -2812.49 -1021.06 -3.69775e-05 -0.0353794 -2.86267e-05
446 2 8.06124 5.58499 15.953 -2812.36 -2812.5 -1021.13 0.000106842 -0.0236961 9.25375e-05
447 2 6.44899 5.58499 18.232 -2812.36 -2812.49 -1021.04 0.000116001 -0.0237055 7.80103e-05
448 2 7.25512 6.98124 13.674 -2812.34 -2812.49 -1021.06 3.95787e-05 -0.035299 4.603e-05
449 2 5.64287 6.98124 15.953 -2812.36 -2812.5 -1021.13 5.59837e-05 -0.0237224 5.24795e-05
450 2 8.86736 6.98124 18.232 -2812.36 -2812.5 -1021.04 -0.000108503 -0.0238747 -0.000113546
451 2 4.83674 5.58499 20.511 -2804.07 -2804.22 -877.708 7.00836e-05 -0.0353092 3.44348e-05
452 2 8.06124 5.58499 22.79 -1940.76 -1940.9 5336.46 -5.06093e-05 -0.0238018 -2.76025e-05
453 2 6.44899 5.58499 25.069 1828.61 1828.6 -69.7617 -1.89868e-06 -0.000839875 -7.42399e-06
454 2 7.25512 6.98124 20.511 -2804.07 -2804.22 -877.709 -8.18568e-05 -0.035411 -6.41511e-05
455 2 5.64287 6.98124 22.79 -1940.76 -1940.9 5336.46 -2.35453e-06 -0.0237922 -1.3948e-05
456 2 8.86736 6.98124 25.069 1828.61 1828.6 -69.7616 -4.44031e-05 -0.000814119 2.18698e-05
457 2 4.83674 8.37749 0 2596.05 2596.03 -99.0249 3.64131e-06 -0.00342328 1.85922e-06
458 2 8.06124 8.37749 2.279 -1940.76 -1940.9 5336.46 -6.05133e-07 -0.0237688 -3.59595e-06
459 2 6.44899 8.37749 4.55799 -2804.09 -2804.23 -877.783 -9.47603e-08 -0.023755 6.62293e-06
460 2 7.25512 9.77373 0 2596.05 2596.03 -99.0249 3.34944e-06 -0.00342773 -1.06656e-06
461 2 5.64287 9.77373 2.279 -1940.76 -1940.9 5336.46 5.70187e-07 -0.0237719 8.6485e-07
462 2 8.86736 9.77373 4.55799 -2804.09 -2804.23 -877.783 7.29806e-06 -0.0237451 1.29304e-05
463 2 4.83674 8.37749 6.83699 -2812.33 -2812.48 -1020.96 5.52998e-06 -0.035333 1.18758e-05
464 2 8.06124 8.37749 9.11598 -2812.36 -2812.5 -1021.14 -3.78178e-05 -0.0238323 -4.60938e-05
465 2 6.44899 8.37749 11.395 -2812.36 -2812.5 -1021.13 -3.86758e-05 -0.0238204 -3.76767e-05
466 2 7.25512 9.77373 6.83699 -2812.33 -2812.48 -1020.96 -1.06698e-05 -0.0353623 -8.32954e-06
467 2 5.64287 9.77373 9.11598 -2812.36 -2812.5 -1021.14 -2.44845e-05 -0.023816 -2.9817e-05
468 2 8.86736 9.77373 11.395 -2812.36 -2812.5 -1021.13 0.000111162 -0.0235968 0.000165884
469 2 4.83674 8.37749 13.674 -2812.34 -2812.49 -1021.06 -2.55257e-05 -0.0353679 -8.35344e-06
470 2 8.06124 8.37749 15.953 -2812.36 -2812.5 -1021.14 4.79425e-05 -0.0237597 1.94639e-05
471 2 6.44899 8.37749 18.232 -2812.36 -2812.5 -1021.04 2.55525e-05 -0.0237922 -8.99384e-06
472 2 7.25512 9.77373 13.674 -2812.34 -2812.49 -1021.06 0.000154732 -0.0351618 0.000153305
473 2 5.64287 9.77373 15.953 -2812.36 -2812.5 -1021.14 0.000120492 -0.0236677 8.16958e-05
474 2 8.86736 9.77373 18.232 -2812.36 -2812.49 -1021.04 -0.000684022 -0.0242585 -0.000459179
475 2 4.83674 8.37749 20.511 -2804.07 -2804.22 -877.709 5.80173e-05 -0.0353426 -4.22773e-06
476 2 8.06124 8.37749 22.79 -1940.76 -1940.9 5336.46 -0.000209405 -0.0237674 5.11962e-06
477 2 6.44899 8.37749 25.069 1828.61 1828.6 -69.7617 -5.49779e-05 -0.000828371 3.15954e-06
478 2 7.25512 9.77373 20.511 -2804.07 -2804.22 -877.708 -0.000464907 -0.0355646 -0.000189169
479 2 5.64287 9.77373 22.79 -1940.76 -1940.9 5336.46 -0.000136527 -0.0238203 -3.32012e-05
480 2 8.86736 9.77373 25.069 1828.61 1828.6 -69.7616 0.000207448 -0.000800562 3.40291e-05
481 2 4.83674 11.17 0 2596.05 2596.03 -99.0249 4.48938e-06 -0.00342608 1.15574e-06
482 2 8.06124 11.17 2.279 -1940.76 -1940.9 5336.46 3.51899e-06 -0.0237663 1.47889e-06
483 2 6.44899 11.17 4.55799 -2804.09 -2804.23 -877.783 4.40687e-06 -0.0237502 1.8634e-05
484 2 7.25512 12.5662 0 2596.05 2596.03 -99.0249 2.60915e-06 -0.00343041 -2.25177e-06
485 2 5.64287 12.5662 2.279 -1940.76 -1940.9 5336.46 6.40069e-07 -0.0237768 3.30399e-06
486 2 8.86736 12.5662 4.55799 -2804.09 -2804.23 -877.784 -6.91323e-07 -0.0237702 3.17037e-07
487 2 4.83674 11.17 6.83699 -2812.33 -2812.48 -1020.96 3.94016e-06 -0.035334 7.95334e-06
488 2 8.06124 11.17 9.11598 -2812.36 -2812.5 -1021.13 -2.91016e-05 -0.0238112 -2.73359e-05
489 2 6.44899 11.17 11.395 -2812.36 -2812.5 -1021.13 2.86436e-05 -0.0236973 4.80064e-05
490 2 7.25512 12.5662 6.83699 -2812.33 -2812.48 -1020.96 -2.71112e-05 -0.0354123 -3.47178e-05
491 2 5.64287 12.5662 9.11598 -2812.36 -2812.5 -1021.14 -3.60108e-05 -0.0238493 -4.09402e-05
492 2 8.86736 12.5662 11.395 -2812.36 -2812.5 -1021.13 0.000112019 -0.0235686 0.000140212
493 2 4.83674 11.17 13.674 -2812.34 -2812.49 -1021.06 7.49902e-05 -0.0352177 7.48697e-05
494 2 8.06124 11.17 15.953 -2812.36 -2812.5 -1021.14 -0.000178013 -0.0240066 -0.000171222
495 2 6.44899 11.17 18.232 -2812.36 -2812.5 -1021.04 -0.000285237 -0.0240627 -0.000198549
496 2 7.25512 12.5662 13.674 -2812.34 -2812.49 -1021.06 3.85427e-05 -0.0353127 2.49496e-05
497 2 5.64287 12.5662 15.953 -2812.36 -2812.5 -1021.14 -3.83455e-06 -0.0238047 -2.07842e-05
498 2 8.86736 12.5662 18.232 -2812.35 -2812.49 -1021.03 0.000698538 -0.0223808 0.000912651
499 2 4.83674 11.17 20.511 -2804.07 -2804.22 -877.709 -0.000154104 -0.0354816 -8.76085e-05
500 2 8.06124 11.17 22.79 -1940.75 -1940.89 5336.46 0.00096972 -0.0232262 0.000421527
501 2 6.44899 11.17 25.069 1828.61 1828.6 -69.7616 3.24225e-05 -0.000779986 3.68501e-05
502 2 7.25512 12.5662 20.511 -2804.06 -2804.21 -877.704 0.000456744 -0.0345462 0.000456759
503 2 5.64287 12.5662 22.79 -1940.76 -1940.89 5336.46 -9.71917e-05 -0.0236441 7.34308e-05
504 2 8.86736 12.5662 25.069 1828.61 1828.6 -69.7619 5.54989e-05 -0.000880696 -3.17117e-05
505 2 4.83674 13.9625 0 2596.05 2596.03 -99.0249 2.37968e-06 -0.00343019 6.33849e-07
506 2 8.06124 13.9625 2.279 -1940.76 -1940.9 5336.46 3.50962e-06 -0.0237627 5.49147e-06
507 2 6.44899 13.9625 4.55799 -2804.09 -2804.23 -877.783 2.55144e-06 -0.0237563 1.39828e-05
508 2 7.25512 15.3587 0 2596.05 2596.03 -99.0249 6.88548e-07 -0.00343195 -1.57049e-06
509 2 5.64287 15.3587 2.279 -1940.76 -1940.9 5336.46 -4.01772e-07 -0.023777 3.94745e-06
510 2 8.86736 15.3587 4.55799 -2804.09 -2804.23 -877.784 -9.40688e-06 -0.0238047 -1.26512e-05
511 2 4.83674 13.9625 6.83699 -2812.33 -2812.48 -1020.96 -4.0527e-06 -0.0353618 -6.9384e-06
512 2 8.06124 13.9625 9.11598 -2812.36 -2812.5 -1021.13 3.0951e-05 -0.0236648 5.53499e-05
513 2 6.44899 13.9625 11.395 -2812.36 -2812.5 -1021.13 0.000103164 -0.0235177 0.000124385
514 2 7.25512 15.3587 6.83699 -2812.33 -2812.48 -1020.96 -2.8447e-05 -0.0354461 -3.83118e-05
515 2 5.64287 15.3587 9.11598 -2812.36 -2812.5 -1021.13 -2.0447e-05 -0.0238346 -2.09853e-05
516 2 8.86736 15.3587 11.395 -2812.36 -2812.5 -1021.14 1.6952e-05 -0.0237575 9.04603e-06
517 2 4.83674 13.9625 13.674 -2812.34 -2812.49 -1021.06 0.000114748 -0.0351158 8.78929e-05
518 2 8.06124 13.9625 15.953 -2812.36 -2812.5 -1021.13 -0.000631481 -0.0247051 -0.000511933
519 2 6.44899 13.9625 18.232 -2812.36 -2812.49 -1021.04 -0.000600121 -0.0243892 -0.000330512
520 2 7.25512 15.3587 13.674 -2812.34 -2812.49 -1021.06 -4.65375e-05 -0.0354953 -5.76022e-05
521 2 5.64287 15.3587 15.953 -2812.36 -2812.5 -1021.14 -7.80224e-05 -0.0239559 -7.2821e-05
522 2 8.86736 15.3587 18.232 -2812.35 -2812.49 -1021.03 0.00262605 -0.0191047 0.00214152
523 2 4.83674 13.9625 20.511 -2804.07 -2804.22 -877.708 -0.000397669 -0.0356558 -0.000132338
524 2 8.06124 13.9625 22.79 -1940.76 -1940.9 5336.46 -0.000528693 -0.0239144 -7.94025e-05
525 2 6.44899 13.9625 25.069 1828.61 1828.6 -69.7617 0.000209425 -0.000809566 1.39005e-05