3074
 Atoms. Timestep: 222
Pt 0 0 0
Pt 3.22447 44.6799 2.28145
Pt 1.61221 44.6799 4.56002
Pt 2.41837 1.39625 0
Pt 0.806103 1.39624 2.28146
Pt 4.03058 1.39623 4.56002
Pt 38.6939 44.6799 6.83854
Pt 3.22442 44.6799 9.11704
Pt 1.61215 44.6799 11.3956
Pt 2.41832 1.39623 6.83853
Pt 0.806051 1.39623 9.11705
Pt 4.03053 1.3962 11.3956
Pt 38.6938 44.6799 13.6741
Pt 3.22438 44.6799 15.9526
Pt 1.61212 44.6799 18.2311
Pt 2.41826 1.39619 13.6741
Pt 0.80599 1.39619 15.9526
Pt 4.03051 1.39615 18.2311
Pt 38.6938 44.6799 20.5097
Pt 3.22445 44.6799 22.7883
Pt 1.61221 44.6799 25.0697
Pt 2.41826 1.39616 20.5097
Pt 0.806018 1.39617 22.7883
Pt 4.03064 1.39616 25.0697
Pt 0 2.7925 0
Pt 3.22447 2.79248 2.28145
Pt 1.61221 2.79248 4.56002
Pt 2.41837 4.18874 0
Pt 0.806104 4.18874 2.28146
Pt 4.03058 4.18871 4.56001
Pt -5.00884e-05 2.79248 6.83854
Pt 3.22442 2.79245 9.11704
Pt 1.61215 2.79245 11.3956
Pt 2.41832 4.18871 6.83853
Pt 0.806057 4.18871 9.11705
Pt 4.03052 4.18865 11.3955
Pt 38.6938 2.79245 13.6741
Pt 3.22436 2.79238 15.9526
Pt 1.6121 2.79238 18.2311
Pt 2.41825 4.18864 13.6741
Pt 0.805983 4.18865 15.9526
Pt 4.03048 4.18854 18.2311
Pt 38.6938 2.7924 20.5097
Pt 3.22442 2.79235 22.7883
Pt 1.61219 2.79238 25.0697
Pt 2.41822 4.18856 20.5097
Pt 0.805988 4.18859 22.7883
Pt 4.03062 4.18856 25.0697
Pt 0 5.58499 0
Pt 3.22448 5.58497 2.28145
Pt 1.61221 5.58497 4.56002
Pt 2.41837 6.98124 0
Pt 0.806107 6.98123 2.28146
Pt 4.03059 6.9812 4.56001
Pt -4.28134e-05 5.58497 6.83855
Pt 3.22443 5.58493 9.11704
Pt 1.61216 5.58492 11.3956
Pt 2.41833 6.9812 6.83853
Pt 0.806071 6.9812 9.11706
Pt 4.03053 6.98112 11.3955
Pt 38.6938 5.58493 13.6741
Pt 3.22435 5.58481 15.9526
Pt 1.61208 5.58481 18.2311
Pt 2.41826 6.98111 13.6741
Pt 0.805993 6.98112 15.9526
Pt 4.03044 6.98095 18.2311
Pt 38.6938 5.58483 20.5097
Pt 3.22438 5.58473 22.7882
Pt 1.61217 5.58478 25.0697
Pt 2.41819 6.98096 20.5096
Pt 0.805956 6.98099 22.7883
Pt 4.03057 6.98093 25.0697
Pt 0 8.37749 0
Pt 3.22448 8.37747 2.28145
Pt 1.61222 8.37746 4.56003
Pt 2.41837 9.77373 0
Pt 0.806113 9.77372 2.28146
Pt 4.0306 9.77369 4.56001
Pt 38.6939 8.37747 6.83855
Pt 3.22444 8.37741 9.11703
Pt 1.61219 8.37741 11.3956
Pt 2.41835 9.77369 6.83853
Pt 0.806097 9.7737 9.11706
Pt 4.03056 9.77361 11.3955
Pt -7.45045e-05 8.37742 13.6741
Pt 3.22436 8.37727 15.9526
Pt 1.61209 8.37727 18.2311
Pt 2.41831 9.77361 13.6741
Pt 0.806044 9.77361 15.9526
Pt 4.03046 9.77339 18.231
Pt 38.6938 8.37728 20.5097
Pt 3.22432 8.3771 22.7882
Pt 1.61214 8.37717 25.0697
Pt 2.4182 9.77338 20.5096
Pt 0.805968 9.7734 22.7883
Pt 4.03048 9.7733 25.0697
Pt 0 11.17 0
Pt 3.22449 11.17 2.28145
Pt 1.61224 11.17 4.56002
Pt 2.41837 12.5662 0
Pt 0.806124 12.5662 2.28146
Pt 4.03061 12.5662 4.56
Pt 38.6939 11.17 6.83855
Pt 3.22448 11.1699 9.11702
Pt 1.61223 11.1699 11.3956
Pt 2.41838 12.5662 6.83852
Pt 0.80614 12.5662 9.11704
Pt 4.03063 12.5661 11.3955
Pt -1.28704e-05 11.1699 13.6741
Pt 3.22444 11.1698 15.9525
Pt 1.61218 11.1698 18.2311
Pt 2.4184 12.5661 13.674
Pt 0.80616 12.5661 15.9526
Pt 4.03057 12.5659 18.231
Pt -7.53057e-05 11.1697 20.5097
Pt 3.2243 11.1695 22.7882
Pt 1.61212 11.1696 25.0697
Pt 2.41832 12.5659 20.5096
Pt 0.806092 12.5658 22.7882
Pt 4.03032 12.5657 25.0696
Pt 0 13.9625 0
Pt 3.2245 13.9625 2.28145
Pt 1.61226 13.9625 4.56001
Pt 2.41837 15.3587 0
Pt 0.806137 15.3587 2.28145
Pt 4.03064 15.3587 4.55998
Pt 2.82679e-05 13.9625 6.83852
Pt 3.22453 13.9624 9.11699
Pt 1.61232 13.9624 11.3955
Pt 2.41842 15.3587 6.83849
Pt 0.806204 15.3587 9.11699
Pt 4.03072 15.3586 11.3954
Pt 9.72646e-05 13.9624 13.674
Pt 3.22459 13.9623 15.9525
Pt 1.61238 13.9623 18.231
Pt 2.41854 15.3586 13.674
Pt 0.806371 15.3586 15.9525
Pt 4.03076 15.3584 18.2309
Pt 0.000178521 13.9622 20.5096
Pt 3.22435 13.962 22.7881
Pt 1.61212 13.9621 25.0697
Pt 2.41855 15.3584 20.5095
Pt 0.806319 15.3584 22.7881
Pt 4.03016 15.3583 25.0696
Pt 0 16.755 0
Pt 3.22451 16.755 2.28143
Pt 1.61229 16.755 4.55998
Pt 2.41837 18.1512 0
Pt 0.806152 18.1512 2.28143
Pt 4.03067 18.1512 4.55995
Pt 7.25975e-05 16.755 6.83847
Pt 3.22461 16.7549 9.11694
Pt 1.61243 16.7549 11.3954
Pt 2.41847 18.1512 6.83844
Pt 0.806279 18.1512 9.11692
Pt 4.03082 18.1512 11.3954
Pt 0.000272864 16.7549 13.6739
Pt 3.22479 16.7548 15.9524
Pt 1.61266 16.7548 18.2309
Pt 2.4187 18.1512 13.6739
Pt 0.806616 18.1512 15.9523
Pt 4.03095 18.1511 18.2308
Pt 0.000544691 16.7548 20.5094
Pt 3.22447 16.7546 22.788
Pt 1.61214 16.7547 25.0696
Pt 2.41878 18.151 20.5094
Pt 0.806545 18.151 22.788
Pt 4.03005 18.1509 25.0695
Pt 0 19.5475 0
Pt 3.22452 19.5475 2.28142
Pt 1.61231 19.5475 4.55996
Pt 2.41837 20.9437 0
Pt 0.806158 20.9437 2.28142
Pt 4.03068 20.9437 4.55994
Pt 0.000112 19.5475 6.83842
Pt 3.22467 19.5475 9.11689
Pt 1.61252 19.5475 11.3954
Pt 2.41849 20.9437 6.83842
Pt 0.806317 20.9437 9.11688
Pt 4.03087 20.9437 11.3953
Pt 0.00043237 19.5475 13.6738
Pt 3.22494 19.5474 15.9523
Pt 1.61287 19.5474 18.2308
Pt 2.41877 20.9437 13.6738
Pt 0.806731 20.9437 15.9523
Pt 4.03103 20.9437 18.2308
Pt 0.000826623 19.5474 20.5092
Pt 3.22456 19.5473 22.788
Pt 1.61216 19.5474 25.0695
Pt 2.41887 20.9437 20.5093
Pt 0.806641 20.9437 22.7879
Pt 4.03002 20.9437 25.0694
Pt 0 22.34 0
Pt 3.22452 22.34 2.28142
Pt 1.61231 22.34 4.55996
Pt 2.41837 23.7362 0
Pt 0.806152 23.7362 2.28143
Pt 4.03067 23.7362 4.55995
Pt 0.000112283 22.34 6.83842
Pt 3.22467 22.34 9.11689
Pt 1.61252 22.34 11.3954
Pt 2.41847 23.7362 6.83844
Pt 0.80628 23.7362 9.11692
Pt 4.03082 23.7363 11.3954
Pt 0.000432791 22.34 13.6738
Pt 3.22494 22.34 15.9523
Pt 1.61287 22.34 18.2308
Pt 2.4187 23.7363 13.6739
Pt 0.806617 23.7363 15.9523
Pt 4.03095 23.7364 18.2308
Pt 0.000827013 22.3401 20.5092
Pt 3.22456 22.3401 22.788
Pt 1.61216 22.3401 25.0695
Pt 2.41878 23.7364 20.5094
Pt 0.806546 23.7364 22.788
Pt 4.03005 23.7365 25.0695
Pt 0 25.1325 0
Pt 3.22451 25.1325 2.28143
Pt 1.61229 25.1325 4.55998
Pt 2.41837 26.5287 0
Pt 0.806138 26.5287 2.28145
Pt 4.03064 26.5287 4.55998
Pt 7.335e-05 25.1325 6.83847
Pt 3.22461 25.1325 9.11694
Pt 1.61243 25.1325 11.3954
Pt 2.41842 26.5287 6.83849
Pt 0.806205 26.5287 9.11699
Pt 4.03073 26.5288 11.3954
Pt 0.000273969 25.1325 13.6739
Pt 3.22479 25.1326 15.9524
Pt 1.61266 25.1326 18.2309
Pt 2.41854 26.5288 13.674
Pt 0.806372 26.5288 15.9525
Pt 4.03076 26.529 18.2309
Pt 0.000545704 25.1327 20.5094
Pt 3.22447 25.1328 22.788
Pt 1.61214 25.1328 25.0696
Pt 2.41855 26.529 20.5095
Pt 0.80632 26.5291 22.7881
Pt 4.03016 26.5292 25.0696
Pt 0 27.925 0
Pt 3.2245 27.925 2.28144
Pt 1.61226 27.925 4.56001
Pt 2.41837 29.3212 0
Pt 0.806124 29.3212 2.28146
Pt 4.03061 29.3212 4.56
Pt 2.92422e-05 27.925 6.83852
Pt 3.22454 27.925 9.11699
Pt 1.61232 27.925 11.3955
Pt 2.41838 29.3212 6.83852
Pt 0.806141 29.3212 9.11704
Pt 4.03063 29.3213 11.3955
Pt 9.86567e-05 27.925 13.674
Pt 3.22459 27.9251 15.9525
Pt 1.61238 27.9252 18.231
Pt 2.4184 29.3213 13.674
Pt 0.806162 29.3213 15.9526
Pt 4.03057 29.3215 18.231
Pt 0.000179755 27.9252 20.5096
Pt 3.22435 27.9254 22.7881
Pt 1.61212 27.9254 25.0697
Pt 2.41832 29.3216 20.5096
Pt 0.806093 29.3216 22.7882
Pt 4.03032 29.3217 25.0696
Pt 0 30.7174 0
Pt 3.22449 30.7175 2.28145
Pt 1.61224 30.7175 4.56002
Pt 2.41837 32.1137 0
Pt 0.806114 32.1137 2.28146
Pt 4.0306 32.1137 4.56001
Pt 38.6939 30.7175 6.83855
Pt 3.22448 30.7175 9.11702
Pt 1.61224 30.7175 11.3956
Pt 2.41835 32.1137 6.83853
Pt 0.806098 32.1137 9.11706
Pt 4.03057 32.1138 11.3955
Pt -1.16433e-05 30.7175 13.6741
Pt 3.22444 30.7177 15.9525
Pt 1.61218 30.7177 18.2311
Pt 2.41831 32.1138 13.6741
Pt 0.806045 32.1138 15.9526
Pt 4.03046 32.114 18.231
Pt -7.4287e-05 30.7177 20.5097
Pt 3.2243 30.7179 22.7882
Pt 1.61212 30.7179 25.0697
Pt 2.4182 32.114 20.5096
Pt 0.805969 32.114 22.7883
Pt 4.03048 32.1141 25.0697
Pt 0 33.5099 0
Pt 3.22448 33.51 2.28145
Pt 1.61222 33.51 4.56003
Pt 2.41837 34.9062 0
Pt 0.806107 34.9062 2.28146
Pt 4.03059 34.9062 4.56001
Pt 38.6939 33.51 6.83855
Pt 3.22444 33.51 9.11703
Pt 1.61219 33.51 11.3956
Pt 2.41833 34.9062 6.83853
Pt 0.806071 34.9062 9.11706
Pt 4.03053 34.9063 11.3955
Pt -7.37235e-05 33.51 13.6741
Pt 3.22436 33.5102 15.9526
Pt 1.61209 33.5102 18.2311
Pt 2.41826 34.9063 13.6741
Pt 0.805993 34.9063 15.9526
Pt 4.03044 34.9065 18.2311
Pt 38.6938 33.5102 20.5097
Pt 3.22432 33.5103 22.7882
Pt 1.61214 33.5103 25.0697
Pt 2.41819 34.9065 20.5096
Pt 0.805956 34.9064 22.7883
Pt 4.03057 34.9065 25.0697
Pt 0 36.3024 0
Pt 3.22448 36.3025 2.28145
Pt 1.61221 36.3025 4.56002
Pt 2.41837 37.6987 0
Pt 0.806104 37.6987 2.28146
Pt 4.03058 37.6987 4.56001
Pt -4.24328e-05 36.3025 6.83855
Pt 3.22443 36.3025 9.11703
Pt 1.61216 36.3025 11.3956
Pt 2.41832 37.6987 6.83853
Pt 0.806057 37.6987 9.11705
Pt 4.03052 37.6988 11.3955
Pt 38.6938 36.3025 13.6741
Pt 3.22435 36.3026 15.9526
Pt 1.61208 36.3026 18.2311
Pt 2.41825 37.6988 13.6741
Pt 0.805983 37.6988 15.9526
Pt 4.03047 37.6989 18.2311
Pt 38.6938 36.3026 20.5097
Pt 3.22438 36.3027 22.7882
Pt 1.61217 36.3027 25.0697
Pt 2.41822 37.6989 20.5097
Pt 0.805987 37.6988 22.7883
Pt 4.03061 37.6989 25.0697
Pt 0 39.0949 0
Pt 3.22447 39.0949 2.28145
Pt 1.61221 39.0949 4.56002
Pt 2.41837 40.4912 0
Pt 0.806103 40.4912 2.28146
Pt 4.03058 40.4912 4.56002
Pt -4.9922e-05 39.0949 6.83854
Pt 3.22442 39.095 9.11704
Pt 1.61215 39.095 11.3956
Pt 2.41832 40.4912 6.83853
Pt 0.806051 40.4912 9.11705
Pt 4.03053 40.4912 11.3956
Pt 38.6938 39.095 13.6741
Pt 3.22436 39.0951 15.9526
Pt 1.6121 39.0951 18.2311
Pt 2.41826 40.4912 13.6741
Pt 0.80599 40.4912 15.9526
Pt 4.03051 40.4913 18.2311
Pt 38.6938 39.095 20.5097
Pt 3.22442 39.0951 22.7883
Pt 1.61219 39.0951 25.0697
Pt 2.41826 40.4913 20.5097
Pt 0.806018 40.4913 22.7883
Pt 4.03063 40.4913 25.0697
Pt 0 41.8874 0
Pt 3.22447 41.8874 2.28145
Pt 1.61221 41.8874 4.56002
Pt 2.41837 43.2837 0
Pt 0.806103 43.2837 2.28146
Pt 4.03058 43.2837 4.56002
Pt 38.6939 41.8874 6.83854
Pt 3.22442 41.8874 9.11704
Pt 1.61215 41.8874 11.3956
Pt 2.41832 43.2837 6.83853
Pt 0.80605 43.2837 9.11705
Pt 4.03053 43.2837 11.3956
Pt 38.6938 41.8874 13.6741
Pt 3.22438 41.8875 15.9526
Pt 1.61212 41.8875 18.2311
Pt 2.41826 43.2837 13.6741
Pt 0.805994 43.2837 15.9526
Pt 4.03053 43.2837 18.2311
Pt 38.6938 41.8875 20.5097
Pt 3.22445 41.8875 22.7883
Pt 1.61221 41.8875 25.0697
Pt 2.41828 43.2837 20.5097
Pt 0.80603 43.2837 22.7883
Pt 4.03064 43.2837 25.0697
Pt 4.83674 0 0
Pt 8.06123 44.6799 2.28146
Pt 6.44896 44.6799 4.56003
Pt 7.25512 1.39625 0
Pt 5.64285 1.39624 2.28146
Pt 8.86734 1.39623 4.56004
Pt 4.83669 44.6799 6.83853
Pt 8.06119 44.6799 9.11708
Pt 6.44892 44.6799 11.3956
Pt 7.25508 1.39622 6.83854
Pt 5.6428 1.39621 9.11705
Pt 8.86732 1.3962 11.3956
Pt 4.83665 44.6799 13.6741
Pt 8.0612 44.6799 15.9527
Pt 6.44895 44.6799 18.2312
Pt 7.25504 1.39618 13.6741
Pt 5.64277 1.39616 15.9526
Pt 8.86737 1.39616 18.2312
Pt 4.8367 44.6799 20.5097
Pt 8.06133 44.6799 22.7883
Pt 6.44907 44.6799 25.0698
Pt 7.25512 1.39615 20.5097
Pt 5.64288 1.39615 22.7883
Pt 8.8675 1.39619 25.0698
Pt 4.83674 2.7925 0
Pt 8.06123 2.79248 2.28146
Pt 6.44896 2.79247 4.56002
Pt 7.25512 4.18874 0
Pt 5.64285 4.18872 2.28145
Pt 8.86734 4.18871 4.56003
Pt 4.83669 2.79246 6.83853
Pt 8.06119 2.79244 9.11706
Pt 6.44891 2.79241 11.3956
Pt 7.25507 4.18869 6.83853
Pt 5.6428 4.18867 9.11703
Pt 8.86731 4.18865 11.3956
Pt 4.83663 2.79239 13.6741
Pt 8.06118 2.79236 15.9526
Pt 6.44891 2.79233 18.2311
Pt 7.25502 4.1886 13.6741
Pt 5.64274 4.18856 15.9526
Pt 8.86732 4.18855 18.2312
Pt 4.83666 2.79233 20.5097
Pt 8.06131 2.79236 22.7883
Pt 6.44906 2.79237 25.0697
Pt 7.25507 4.18851 20.5097
Pt 5.64284 4.18852 22.7882
Pt 8.86749 4.18861 25.0698
Pt 4.83674 5.58499 0
Pt 8.06123 5.58497 2.28145
Pt 6.44896 5.58495 4.56001
Pt 7.25512 6.98124 0
Pt 5.64285 6.98121 2.28145
Pt 8.86734 6.98119 4.56001
Pt 4.83669 5.58493 6.83852
Pt 8.06119 5.5849 9.11703
Pt 6.44891 5.58486 11.3955
Pt 7.25507 6.98116 6.8385
Pt 5.6428 6.98114 9.11701
Pt 8.8673 6.98109 11.3955
Pt 4.83662 5.58483 13.674
Pt 8.06113 5.58476 15.9526
Pt 6.44886 5.5847 18.2311
Pt 7.25501 6.98102 13.674
Pt 5.64272 6.98097 15.9525
Pt 8.86724 6.9809 18.231
Pt 4.8366 5.5847 20.5096
Pt 8.06125 5.58473 22.7882
Pt 6.44903 5.58475 25.0697
Pt 7.25498 6.98085 20.5096
Pt 5.64276 6.98087 22.7882
Pt 8.86744 6.98101 25.0697
Pt 4.83674 8.37749 0
Pt 8.06123 8.37746 2.28144
Pt 6.44896 8.37743 4.56
Pt 7.25512 9.77373 0
Pt 5.64285 9.7737 2.28144
Pt 8.86735 9.77368 4.55998
Pt 4.8367 8.37742 6.83851
Pt 8.06119 8.37737 9.11698
Pt 6.44891 8.37732 11.3955
Pt 7.25508 9.77365 6.83847
Pt 5.64282 9.77362 9.11698
Pt 8.86731 9.77355 11.3954
Pt 4.83664 8.37729 13.674
Pt 8.06109 8.37715 15.9525
Pt 6.4488 8.37708 18.231
Pt 7.25502 9.77348 13.6739
Pt 5.64273 9.77342 15.9525
Pt 8.86714 9.77324 18.2309
Pt 4.83654 8.37706 20.5096
Pt 8.06111 8.37704 22.7881
Pt 6.44894 8.37712 25.0696
Pt 7.25485 9.77317 20.5094
Pt 5.64263 9.77321 22.7881
Pt 8.86727 9.77336 25.0695
Pt 4.83674 11.17 0
Pt 8.06123 11.1699 2.28143
Pt 6.44897 11.1699 4.55998
Pt 7.25512 12.5662 0
Pt 5.64286 12.5662 2.28144
Pt 8.86736 12.5662 4.55994
Pt 4.83672 11.1699 6.83849
Pt 8.06121 11.1698 9.11691
Pt 6.44895 11.1698 11.3954
Pt 7.25511 12.5661 6.83843
Pt 5.64286 12.5661 9.11695
Pt 8.86734 12.566 11.3953
Pt 4.83669 11.1698 13.674
Pt 8.0611 11.1696 15.9523
Pt 6.4488 11.1695 18.2309
Pt 7.25508 12.566 13.6738
Pt 5.64282 12.5659 15.9524
Pt 8.8671 12.5657 18.2306
Pt 4.83652 11.1695 20.5095
Pt 8.06085 11.1693 22.7879
Pt 6.44873 11.1695 25.0695
Pt 7.25476 12.5656 20.5093
Pt 5.64249 12.5656 22.788
Pt 8.86686 12.5656 25.0693
Pt 4.83674 13.9625 0
Pt 8.06124 13.9624 2.28141
Pt 6.44899 13.9624 4.55995
Pt 7.25512 15.3587 0
Pt 5.64287 15.3587 2.28142
Pt 8.86737 15.3587 4.5599
Pt 4.83676 13.9624 6.83846
Pt 8.06125 13.9624 9.11684
Pt 6.44902 13.9623 11.3954
Pt 7.25514 15.3587 6.83839
Pt 5.64292 15.3586 9.1169
Pt 8.86739 15.3586 11.3952
Pt 4.8368 13.9623 13.6739
Pt 8.06117 13.9621 15.9522
Pt 6.4489 13.962 18.2308
Pt 7.25517 15.3585 13.6738
Pt 5.64297 15.3585 15.9523
Pt 8.86716 15.3582 18.2305
Pt 4.83662 13.962 20.5094
Pt 8.06049 13.9617 22.7877
Pt 6.44832 13.9618 25.0694
Pt 7.2548 15.3582 20.5092
Pt 5.64244 15.3582 22.7879
Pt 8.86598 15.3579 25.0691
Pt 4.83674 16.755 0
Pt 8.06125 16.7549 2.2814
Pt 6.44902 16.7549 4.55993
Pt 7.25512 18.1512 0
Pt 5.64288 18.1512 2.28141
Pt 8.86739 18.1512 4.55987
Pt 4.8368 16.7549 6.83843
Pt 8.0613 16.7549 9.11678
Pt 6.4491 16.7549 11.3953
Pt 7.25517 18.1512 6.83835
Pt 5.64298 18.1512 9.11686
Pt 8.86744 18.1511 11.3951
Pt 4.83693 16.7549 13.6739
Pt 8.06127 16.7547 15.9521
Pt 6.44904 16.7547 18.2307
Pt 7.25526 18.1511 13.6737
Pt 5.6431 18.1511 15.9523
Pt 8.86723 18.151 18.2305
Pt 4.83678 16.7546 20.5094
Pt 8.06035 16.7543 22.7876
Pt 6.44794 16.7544 25.0693
Pt 7.25489 18.1509 20.5091
Pt 5.64247 18.1509 22.7879
Pt 8.86529 18.1506 25.069
Pt 4.83674 19.5475 0
Pt 8.06125 19.5475 2.28139
Pt 6.44904 19.5475 4.55991
Pt 7.25512 20.9437 0
Pt 5.64289 20.9437 2.28141
Pt 8.8674 20.9437 4.55986
Pt 4.83684 19.5475 6.8384
Pt 8.06133 19.5474 9.11675
Pt 6.44916 19.5474 11.3953
Pt 7.25519 20.9437 6.83834
Pt 5.64301 20.9437 9.11684
Pt 8.86746 20.9437 11.3951
Pt 4.83703 19.5474 13.6738
Pt 8.06133 19.5474 15.9521
Pt 6.44913 19.5474 18.2307
Pt 7.2553 20.9437 13.6737
Pt 5.64316 20.9437 15.9523
Pt 8.86725 20.9437 18.2305
Pt 4.83689 19.5473 20.5093
Pt 8.06033 19.5472 22.7876
Pt 6.44773 19.5473 25.0693
Pt 7.25492 20.9437 20.5091
Pt 5.64249 20.9437 22.7879
Pt 8.86505 20.9437 25.069
Pt 4.83674 22.34 0
Pt 8.06125 22.34 2.28139
Pt 6.44904 22.34 4.55991
Pt 7.25512 23.7362 0
Pt 5.64288 23.7362 2.28141
Pt 8.86739 23.7362 4.55987
Pt 4.83684 22.34 6.8384
Pt 8.06133 22.34 9.11675
Pt 6.44916 22.34 11.3953
Pt 7.25517 23.7363 6.83835
Pt 5.64298 23.7363 9.11686
Pt 8.86744 23.7363 11.3951
Pt 4.83703 22.34 13.6738
Pt 8.06133 22.3401 15.9521
Pt 6.44913 22.3401 18.2307
Pt 7.25526 23.7363 13.6737
Pt 5.6431 23.7364 15.9523
Pt 8.86723 23.7365 18.2305
Pt 4.83689 22.3401 20.5093
Pt 8.06033 22.3402 22.7876
Pt 6.44773 22.3402 25.0693
Pt 7.25489 23.7365 20.5091
Pt 5.64247 23.7365 22.7879
Pt 8.86529 23.7368 25.069
Pt 4.83674 25.1325 0
Pt 8.06125 25.1325 2.2814
Pt 6.44902 25.1325 4.55993
Pt 7.25512 26.5287 0
Pt 5.64287 26.5287 2.28142
Pt 8.86738 26.5288 4.5599
Pt 4.8368 25.1325 6.83843
Pt 8.0613 25.1325 9.11678
Pt 6.4491 25.1326 11.3953
Pt 7.25514 26.5288 6.83838
Pt 5.64292 26.5288 9.1169
Pt 8.86739 26.5289 11.3952
Pt 4.83693 25.1326 13.6739
Pt 8.06127 25.1327 15.9521
Pt 6.44904 25.1328 18.2307
Pt 7.25517 26.5289 13.6738
Pt 5.64297 26.529 15.9523
Pt 8.86716 26.5292 18.2305
Pt 4.83678 25.1328 20.5094
Pt 8.06035 25.1331 22.7876
Pt 6.44794 25.133 25.0693
Pt 7.2548 26.5293 20.5092
Pt 5.64244 26.5293 22.7879
Pt 8.86598 26.5296 25.069
Pt 4.83674 27.925 0
Pt 8.06124 27.925 2.28141
Pt 6.44899 27.925 4.55995
Pt 7.25512 29.3212 0
Pt 5.64286 29.3212 2.28143
Pt 8.86736 29.3213 4.55994
Pt 4.83676 27.925 6.83846
Pt 8.06125 27.9251 9.11684
Pt 6.44902 27.9251 11.3954
Pt 7.25511 29.3213 6.83843
Pt 5.64286 29.3213 9.11694
Pt 8.86734 29.3214 11.3953
Pt 4.8368 27.9251 13.6739
Pt 8.06117 27.9253 15.9522
Pt 6.4489 27.9254 18.2308
Pt 7.25508 29.3215 13.6738
Pt 5.64282 29.3215 15.9524
Pt 8.8671 29.3218 18.2306
Pt 4.83662 27.9254 20.5094
Pt 8.06049 27.9258 22.7877
Pt 6.44832 27.9256 25.0694
Pt 7.25476 29.3219 20.5093
Pt 5.64249 29.3218 22.788
Pt 8.86686 29.3218 25.0692
Pt 4.83674 30.7174 0
Pt 8.06123 30.7175 2.28143
Pt 6.44897 30.7175 4.55998
Pt 7.25512 32.1137 0
Pt 5.64285 32.1137 2.28144
Pt 8.86735 32.1138 4.55998
Pt 4.83672 30.7175 6.83849
Pt 8.06121 30.7176 9.11691
Pt 6.44895 30.7176 11.3954
Pt 7.25508 32.1138 6.83847
Pt 5.64282 32.1138 9.11698
Pt 8.86731 32.1139 11.3954
Pt 4.83669 30.7177 13.674
Pt 8.0611 30.7178 15.9523
Pt 6.4488 30.7179 18.2309
Pt 7.25502 32.114 13.6739
Pt 5.64273 32.114 15.9525
Pt 8.86714 32.1142 18.2309
Pt 4.83652 30.718 20.5095
Pt 8.06085 30.7181 22.7879
Pt 6.44873 30.718 25.0695
Pt 7.25485 32.1143 20.5094
Pt 5.64263 32.1142 22.7881
Pt 8.86727 32.1141 25.0695
Pt 4.83674 33.5099 0
Pt 8.06123 33.51 2.28144
Pt 6.44896 33.51 4.55999
Pt 7.25512 34.9062 0
Pt 5.64285 34.9062 2.28145
Pt 8.86734 34.9062 4.56001
Pt 4.8367 33.51 6.8385
Pt 8.06119 33.5101 9.11698
Pt 6.44891 33.5101 11.3955
Pt 7.25507 34.9063 6.8385
Pt 5.6428 34.9063 9.11701
Pt 8.8673 34.9063 11.3955
Pt 4.83664 33.5101 13.674
Pt 8.06109 33.5103 15.9525
Pt 6.4488 33.5104 18.231
Pt 7.25501 34.9064 13.674
Pt 5.64272 34.9065 15.9525
Pt 8.86724 34.9065 18.231
Pt 4.83654 33.5104 20.5096
Pt 8.06111 33.5104 22.7881
Pt 6.44894 33.5103 25.0696
Pt 7.25497 34.9066 20.5096
Pt 5.64276 34.9066 22.7882
Pt 8.86743 34.9064 25.0697
Pt 4.83674 36.3024 0
Pt 8.06123 36.3025 2.28145
Pt 6.44896 36.3025 4.56001
Pt 7.25512 37.6987 0
Pt 5.64285 37.6987 2.28145
Pt 8.86734 37.6987 4.56003
Pt 4.83669 36.3025 6.83852
Pt 8.06119 36.3025 9.11703
Pt 6.44891 36.3026 11.3955
Pt 7.25507 37.6987 6.83853
Pt 5.6428 37.6988 9.11703
Pt 8.86731 37.6988 11.3956
Pt 4.83662 36.3026 13.674
Pt 8.06113 36.3027 15.9526
Pt 6.44885 36.3027 18.2311
Pt 7.25502 37.6988 13.6741
Pt 5.64274 37.6989 15.9526
Pt 8.86732 37.6989 18.2312
Pt 4.8366 36.3027 20.5096
Pt 8.06125 36.3027 22.7882
Pt 6.44903 36.3027 25.0697
Pt 7.25507 37.6989 20.5097
Pt 5.64284 37.6989 22.7882
Pt 8.86748 37.6988 25.0698
Pt 4.83674 39.0949 0
Pt 8.06123 39.0949 2.28146
Pt 6.44896 39.095 4.56002
Pt 7.25512 40.4912 0
Pt 5.64285 40.4912 2.28146
Pt 8.86734 40.4912 4.56004
Pt 4.83669 39.095 6.83853
Pt 8.06119 39.095 9.11706
Pt 6.44891 39.095 11.3956
Pt 7.25507 40.4912 6.83854
Pt 5.6428 40.4912 9.11705
Pt 8.86732 40.4912 11.3956
Pt 4.83663 39.095 13.6741
Pt 8.06118 39.0951 15.9526
Pt 6.44891 39.0951 18.2311
Pt 7.25504 40.4913 13.6741
Pt 5.64277 40.4913 15.9526
Pt 8.86737 40.4913 18.2312
Pt 4.83666 39.0951 20.5097
Pt 8.06131 39.0951 22.7883
Pt 6.44906 39.0951 25.0697
Pt 7.25512 40.4913 20.5097
Pt 5.64288 40.4913 22.7883
Pt 8.8675 40.4912 25.0698
Pt 4.83674 41.8874 0
Pt 8.06123 41.8874 2.28146
Pt 6.44896 41.8874 4.56003
Pt 7.25512 43.2837 0
Pt 5.64285 43.2837 2.28146
Pt 8.86734 43.2837 4.56004
Pt 4.83669 41.8874 6.83853
Pt 8.06119 41.8875 9.11708
Pt 6.44892 41.8875 11.3956
Pt 7.25508 43.2837 6.83855
Pt 5.6428 43.2837 9.11705
Pt 8.86732 43.2837 11.3956
Pt 4.83665 41.8875 13.6741
Pt 8.0612 41.8875 15.9527
Pt 6.44895 41.8875 18.2312
Pt 7.25505 43.2837 13.6741
Pt 5.64279 43.2837 15.9526
Pt 8.86739 43.2837 18.2312
Pt 4.8367 41.8875 20.5097
Pt 8.06133 41.8875 22.7883
Pt 6.44907 41.8875 25.0698
Pt 7.25514 43.2837 20.5097
Pt 5.64289 43.2837 22.7883
Pt 8.8675 43.2837 25.0698
Pt 9.67349 0 0
Pt 12.898 44.6799 2.28148
Pt 11.2857 44.6799 4.56006
Pt 12.0919 1.39625 0
Pt 10.4796 1.39624 2.28147
Pt 13.7041 1.39624 4.56007
Pt 9.67346 44.6799 6.83858
Pt 12.898 44.6799 9.11715
Pt 11.2857 44.6799 11.3957
Pt 12.0918 1.39624 6.8386
Pt 10.4796 1.39623 9.11711
Pt 13.7041 1.39625 11.3957
Pt 9.67346 44.6799 13.6742
Pt 12.898 44.6799 15.9528
Pt 11.2858 44.6799 18.2313
Pt 12.0919 1.39623 13.6742
Pt 10.4796 1.3962 15.9527
Pt 13.7042 1.39627 18.2313
Pt 9.67358 44.6799 20.5098
Pt 12.8982 44.6799 22.7884
Pt 11.2859 44.6799 25.0699
Pt 12.092 1.39624 20.5098
Pt 10.4798 1.39621 22.7884
Pt 13.7043 1.39631 25.0699
Pt 9.67349 2.7925 0
Pt 12.898 2.79249 2.28148
Pt 11.2857 2.79248 4.56006
Pt 12.0919 4.18874 0
Pt 10.4796 4.18873 2.28147
Pt 13.7041 4.18874 4.56007
Pt 9.67346 2.79247 6.83857
Pt 12.898 2.79249 9.11714
Pt 11.2857 2.79246 11.3957
Pt 12.0918 4.18872 6.83859
Pt 10.4796 4.18869 9.11709
Pt 13.7041 4.18874 11.3957
Pt 9.67345 2.79241 13.6741
Pt 12.898 2.79248 15.9528
Pt 11.2858 2.79243 18.2313
Pt 12.0919 4.18869 13.6742
Pt 10.4796 4.18862 15.9527
Pt 13.7042 4.18877 18.2313
Pt 9.67355 2.79238 20.5097
Pt 12.8982 2.79255 22.7884
Pt 11.2859 2.79248 25.0698
Pt 12.092 4.1887 20.5098
Pt 10.4797 4.18864 22.7883
Pt 13.7043 4.18888 25.0699
Pt 9.67349 5.58499 0
Pt 12.898 5.58498 2.28148
Pt 11.2857 5.58497 4.56004
Pt 12.0919 6.98124 0
Pt 10.4796 6.98122 2.28146
Pt 13.7041 6.98123 4.56006
Pt 9.67346 5.58494 6.83854
Pt 12.898 5.58497 9.11712
Pt 11.2857 5.58492 11.3956
Pt 12.0919 6.98121 6.83856
Pt 10.4796 6.98116 9.11704
Pt 13.7041 6.98124 11.3956
Pt 9.67342 5.58484 13.6741
Pt 12.898 5.58494 15.9527
Pt 11.2857 5.58483 18.2312
Pt 12.0918 6.98115 13.6741
Pt 10.4795 6.98101 15.9526
Pt 13.7042 6.98122 18.2313
Pt 9.67348 5.58475 20.5097
Pt 12.8982 5.58504 22.7884
Pt 11.2859 5.58495 25.0698
Pt 12.0919 6.98109 20.5097
Pt 10.4797 6.98101 22.7882
Pt 13.7043 6.98145 25.0698
Pt 9.67349 8.37749 0
Pt 12.898 8.37748 2.28147
Pt 11.2857 8.37745 4.56002
Pt 12.0919 9.77373 0
Pt 10.4796 9.77371 2.28144
Pt 13.7041 9.77373 4.56004
Pt 9.67347 8.37742 6.83849
Pt 12.898 8.37747 9.11706
Pt 11.2857 8.37738 11.3955
Pt 12.0919 9.7737 6.8385
Pt 10.4796 9.77364 9.11695
Pt 13.7041 9.77374 11.3956
Pt 9.6734 8.37726 13.674
Pt 12.8979 8.37737 15.9526
Pt 11.2856 8.37717 18.231
Pt 12.0918 9.77359 13.6739
Pt 10.4795 9.7734 15.9524
Pt 13.704 9.7736 18.2311
Pt 9.67334 8.37705 20.5095
Pt 12.8981 8.37745 22.7882
Pt 11.2858 8.37739 25.0696
Pt 12.0917 9.77336 20.5095
Pt 10.4794 9.77328 22.788
Pt 13.7042 9.77399 25.0697
Pt 9.67349 11.17 0
Pt 12.898 11.17 2.28145
Pt 11.2857 11.1699 4.55997
Pt 12.0919 12.5662 0
Pt 10.4796 12.5662 2.28142
Pt 13.7041 12.5662 4.55999
Pt 9.67348 11.1699 6.83843
Pt 12.898 11.17 9.11696
Pt 11.2857 11.1698 11.3954
Pt 12.0919 12.5662 6.83841
Pt 10.4796 12.5661 9.11683
Pt 13.7042 12.5662 11.3954
Pt 9.67341 11.1697 13.6738
Pt 12.8979 11.1698 15.9523
Pt 11.2855 11.1695 18.2307
Pt 12.0918 12.566 13.6737
Pt 10.4795 12.5658 15.9521
Pt 13.7038 12.5659 18.2306
Pt 9.6731 11.1693 20.5092
Pt 12.8978 11.1697 22.7879
Pt 11.2856 11.1697 25.0693
Pt 12.0913 12.5655 20.509
Pt 10.4789 12.5654 22.7876
Pt 13.7039 12.5664 25.0692
Pt 9.67349 13.9625 0
Pt 12.898 13.9625 2.28142
Pt 11.2858 13.9624 4.55991
Pt 12.0919 15.3587 0
Pt 10.4796 15.3587 2.28139
Pt 13.7042 15.3587 4.55994
Pt 9.67349 13.9624 6.83836
Pt 12.898 13.9624 9.11681
Pt 11.2857 13.9623 11.3952
Pt 12.0919 15.3587 6.83831
Pt 10.4796 15.3586 9.11672
Pt 13.7042 15.3587 11.3952
Pt 9.67345 13.9622 13.6736
Pt 12.8979 13.9622 15.9519
Pt 11.2854 13.9619 18.2303
Pt 12.0918 15.3585 13.6734
Pt 10.4795 15.3584 15.9519
Pt 13.7037 15.3582 18.2299
Pt 9.67288 13.9617 20.5089
Pt 12.8969 13.9616 22.7873
Pt 11.2849 13.9618 25.0689
Pt 12.0909 15.3578 20.5083
Pt 10.4782 15.3576 22.7872
Pt 13.7029 15.3582 25.0683
Pt 9.67349 16.755 0
Pt 12.898 16.755 2.2814
Pt 11.2858 16.7549 4.55986
Pt 12.0919 18.1512 0
Pt 10.4796 18.1512 2.28137
Pt 13.7042 18.1512 4.5599
Pt 9.67352 16.7549 6.83829
Pt 12.898 16.7549 9.11667
Pt 11.2857 16.7549 11.395
Pt 12.0919 18.1512 6.83824
Pt 10.4797 18.1512 9.11665
Pt 13.7041 18.1512 11.395
Pt 9.6735 16.7548 13.6735
Pt 12.8978 16.7547 15.9516
Pt 11.2853 16.7545 18.2301
Pt 12.0918 18.1511 13.6733
Pt 10.4795 18.151 15.9518
Pt 13.7035 18.1508 18.2295
Pt 9.67288 16.7544 20.5088
Pt 12.8955 16.7534 22.7862
Pt 11.2829 16.7536 25.0684
Pt 12.0909 18.1506 20.5082
Pt 10.478 18.1505 22.7871
Pt 13.6981 18.1488 25.0672
Pt 9.67349 19.5475 0
Pt 12.898 19.5475 2.28138
Pt 11.2858 19.5475 4.55983
Pt 12.0919 20.9437 0
Pt 10.4796 20.9437 2.28137
Pt 13.7042 20.9437 4.55988
Pt 9.67353 19.5474 6.83826
Pt 12.898 19.5475 9.11659
Pt 11.2857 19.5474 11.395
Pt 12.0919 20.9437 6.83821
Pt 10.4797 20.9437 9.11663
Pt 13.7041 20.9437 11.3949
Pt 9.67353 19.5474 13.6735
Pt 12.8977 19.5474 15.9515
Pt 11.2853 19.5473 18.2301
Pt 12.0918 20.9437 13.6733
Pt 10.4795 20.9437 15.9518
Pt 13.7033 20.9437 18.2295
Pt 9.67291 19.5473 20.5088
Pt 12.8955 19.5469 22.7864
Pt 11.2818 19.5468 25.0685
Pt 12.0908 20.9437 20.5083
Pt 10.478 20.9437 22.7872
Pt 13.6966 20.9437 25.0675
Pt 9.67349 22.34 0
Pt 12.898 22.34 2.28138
Pt 11.2858 22.34 4.55983
Pt 12.0919 23.7362 0
Pt 10.4796 23.7362 2.28137
Pt 13.7042 23.7362 4.55989
Pt 9.67353 22.34 6.83826
Pt 12.898 22.34 9.11659
Pt 11.2857 22.34 11.395
Pt 12.0919 23.7362 6.83824
Pt 10.4797 23.7363 9.11665
Pt 13.7041 23.7362 11.395
Pt 9.67353 22.34 13.6735
Pt 12.8977 22.3401 15.9515
Pt 11.2853 22.3402 18.2301
Pt 12.0918 23.7363 13.6733
Pt 10.4795 23.7364 15.9518
Pt 13.7035 23.7367 18.2295
Pt 9.67291 22.3402 20.5088
Pt 12.8955 22.3406 22.7864
Pt 11.2818 22.3406 25.0685
Pt 12.0909 23.7368 20.5082
Pt 10.478 23.7369 22.7871
Pt 13.6981 23.7387 25.0672
Pt 9.67349 25.1325 0
Pt 12.898 25.1325 2.2814
Pt 11.2858 25.1325 4.55986
Pt 12.0919 26.5287 0
Pt 10.4796 26.5287 2.28139
Pt 13.7042 26.5287 4.55994
Pt 9.67352 25.1325 6.83829
Pt 12.898 25.1325 9.11667
Pt 11.2857 25.1326 11.395
Pt 12.0919 26.5288 6.83831
Pt 10.4796 26.5288 9.11672
Pt 13.7042 26.5287 11.3951
Pt 9.6735 25.1327 13.6735
Pt 12.8978 25.1328 15.9515
Pt 11.2853 25.133 18.2301
Pt 12.0918 26.5289 13.6734
Pt 10.4795 26.5291 15.9519
Pt 13.7037 26.5292 18.2299
Pt 9.67288 25.1331 20.5088
Pt 12.8955 25.134 22.7862
Pt 11.2829 25.1338 25.0684
Pt 12.0909 26.5297 20.5083
Pt 10.4782 26.5298 22.7872
Pt 13.7029 26.5292 25.0683
Pt 9.67349 27.925 0
Pt 12.898 27.925 2.28142
Pt 11.2858 27.925 4.55991
Pt 12.0919 29.3212 0
Pt 10.4796 29.3212 2.28142
Pt 13.7041 29.3212 4.55999
Pt 9.6735 27.925 6.83835
Pt 12.898 27.925 9.11681
Pt 11.2857 27.9251 11.3952
Pt 12.0919 29.3212 6.83841
Pt 10.4796 29.3213 9.11683
Pt 13.7042 29.3212 11.3954
Pt 9.67345 27.9252 13.6736
Pt 12.8979 27.9252 15.9519
Pt 11.2854 27.9256 18.2303
Pt 12.0918 29.3214 13.6737
Pt 10.4795 29.3216 15.9521
Pt 13.7038 29.3216 18.2306
Pt 9.67288 27.9258 20.5089
Pt 12.8969 27.9259 22.7873
Pt 11.2849 27.9256 25.0689
Pt 12.0913 29.3219 20.509
Pt 10.4789 29.322 22.7876
Pt 13.7039 29.3211 25.0692
Pt 9.67349 30.7174 0
Pt 12.898 30.7175 2.28145
Pt 11.2857 30.7175 4.55997
Pt 12.0919 32.1137 0
Pt 10.4796 32.1137 2.28144
Pt 13.7041 32.1137 4.56003
Pt 9.67348 30.7175 6.83843
Pt 12.898 30.7175 9.11696
Pt 11.2857 30.7176 11.3954
Pt 12.0919 32.1137 6.8385
Pt 10.4796 32.1138 9.11695
Pt 13.7041 32.1137 11.3955
Pt 9.67341 30.7177 13.6738
Pt 12.8979 30.7177 15.9523
Pt 11.2855 30.718 18.2307
Pt 12.0918 32.1138 13.6739
Pt 10.4795 32.114 15.9524
Pt 13.704 32.1138 18.2311
Pt 9.6731 30.7181 20.5092
Pt 12.8978 30.7178 22.7879
Pt 11.2856 30.7177 25.0693
Pt 12.0917 32.1141 20.5094
Pt 10.4794 32.1142 22.788
Pt 13.7042 32.1135 25.0697
Pt 9.67349 33.5099 0
Pt 12.898 33.51 2.28147
Pt 11.2857 33.51 4.56001
Pt 12.0919 34.9062 0
Pt 10.4796 34.9062 2.28146
Pt 13.7041 34.9062 4.56006
Pt 9.67347 33.51 6.83849
Pt 12.898 33.51 9.11706
Pt 11.2857 33.5101 11.3955
Pt 12.0919 34.9062 6.83856
Pt 10.4796 34.9063 9.11704
Pt 13.7041 34.9062 11.3956
Pt 9.6734 33.5102 13.674
Pt 12.8979 33.5101 15.9526
Pt 11.2856 33.5103 18.231
Pt 12.0918 34.9063 13.6741
Pt 10.4795 34.9064 15.9526
Pt 13.7041 34.9062 18.2312
Pt 9.67334 33.5104 20.5095
Pt 12.8981 33.51 22.7882
Pt 11.2858 33.5101 25.0696
Pt 12.0919 34.9064 20.5097
Pt 10.4797 34.9064 22.7882
Pt 13.7043 34.906 25.0698
Pt 9.67349 36.3024 0
Pt 12.898 36.3024 2.28148
Pt 11.2857 36.3025 4.56004
Pt 12.0919 37.6987 0
Pt 10.4796 37.6987 2.28147
Pt 13.7041 37.6987 4.56007
Pt 9.67346 36.3025 6.83854
Pt 12.898 36.3025 9.11712
Pt 11.2857 36.3025 11.3956
Pt 12.0918 37.6987 6.83859
Pt 10.4796 37.6987 9.11709
Pt 13.7041 37.6987 11.3957
Pt 9.67342 36.3026 13.6741
Pt 12.898 36.3025 15.9527
Pt 11.2857 36.3026 18.2312
Pt 12.0918 37.6987 13.6742
Pt 10.4796 37.6988 15.9527
Pt 13.7042 37.6987 18.2313
Pt 9.67348 36.3027 20.5097
Pt 12.8982 36.3024 22.7884
Pt 11.2859 36.3025 25.0698
Pt 12.092 37.6987 20.5098
Pt 10.4797 37.6988 22.7883
Pt 13.7043 37.6986 25.0699
Pt 9.67349 39.0949 0
Pt 12.898 39.0949 2.28148
Pt 11.2857 39.0949 4.56006
Pt 12.0919 40.4912 0
Pt 10.4796 40.4912 2.28147
Pt 13.7041 40.4912 4.56007
Pt 9.67346 39.095 6.83857
Pt 12.898 39.0949 9.11714
Pt 11.2857 39.095 11.3956
Pt 12.0918 40.4912 6.8386
Pt 10.4796 40.4912 9.11711
Pt 13.7041 40.4912 11.3957
Pt 9.67345 39.095 13.6741
Pt 12.898 39.095 15.9528
Pt 11.2858 39.095 18.2313
Pt 12.0919 40.4912 13.6742
Pt 10.4796 40.4912 15.9527
Pt 13.7042 40.4912 18.2313
Pt 9.67355 39.0951 20.5097
Pt 12.8982 39.0949 22.7884
Pt 11.2859 39.095 25.0698
Pt 12.092 40.4912 20.5098
Pt 10.4798 40.4912 22.7884
Pt 13.7043 40.4911 25.0699
Pt 9.67349 41.8874 0
Pt 12.898 41.8874 2.28148
Pt 11.2857 41.8874 4.56006
Pt 12.0919 43.2837 0
Pt 10.4796 43.2837 2.28147
Pt 13.7041 43.2837 4.56007
Pt 9.67346 41.8874 6.83858
Pt 12.898 41.8874 9.11715
Pt 11.2857 41.8874 11.3957
Pt 12.0918 43.2837 6.8386
Pt 10.4796 43.2837 9.11712
Pt 13.7041 43.2837 11.3957
Pt 9.67346 41.8875 13.6742
Pt 12.898 41.8874 15.9528
Pt 11.2858 41.8875 18.2313