ITEM: TIMESTEP
200
ITEM: NUMBER OF ATOMS
3074
ITEM: BOX BOUNDS pp pp pp
0.0000000000000000e+00 3.8693948398131120e+01
0.0000000000000000e+00 4.4679925159782847e+01
0.0000000000000000e+00 6.0000000000000000e+01
ITEM: ATOMS id type x y z c_peratom[1] c_peratom[2] c_peratom[3] c_peratom[4] c_peratom[5] c_peratom[6]
1 2 0 0 0 -196871 -196923 49026.8 -1.04081 -48.9 -2.75815
1693 2 19.3473 16.7553 13.6747 38654.6 44240.5 11804.9 1624.52 3945.11 8201.82
1675 2 19.3468 13.9635 20.5106 40634 51836.7 22549.1 -1091.9 8201.59 12363.1
4 2 2.41837 1.39625 0 -196881 -196944 48959.7 -7.65558 -64.3268 -18.4916
5 2 0.806113 1.39625 2.28146 37388.5 37307.2 -47851.2 -22.7662 -97.2822 -17.9748
6 2 4.0306 1.39624 4.56003 39683 39424.1 -1988.74 -66.0807 -147.801 -68.49
1344 2 18.4911 20.9437 25.0332 -1.1559e+06 -557242 -968130 124.078 -452800 -25.4101
1663 2 19.347 13.9625 6.83854 39363 40326.3 145.626 68.2408 233.547 370.581
1651 2 19.347 11.1706 20.51 38804.4 47665 4412.11 -6.46863 2075.82 4528.36
10 2 2.41834 1.39624 6.83855 39586.6 39349 -354.156 -77.3768 -180.737 -64.6349
11 2 0.806083 1.39624 9.11707 39503.1 39322.6 -257.081 -83.3562 -199.871 -58.1741
12 2 4.03055 1.39621 11.3956 39532.1 38818.9 -299.235 -216.963 -300.087 -199.643
1343 2 15.3127 20.9437 22.7846 48958.3 46141.4 -51697.6 27.5514 -11942.8 3.25824
1645 2 19.3469 11.17 13.6741 39298.5 40850.6 1327.4 -564.224 -192.254 9.2295
1639 2 19.347 11.1699 6.83853 39446.8 39948.2 -323.418 -141.904 -45.1232 -188.875
16 2 2.41829 1.39621 13.6741 39395 38725 -192.254 -268.764 -314.259 -200.965
17 2 0.806034 1.39621 15.9526 39305.1 38722.6 -77.2869 -302.036 -272.895 -186.946
18 2 4.03053 1.39617 18.2312 39627 38059.6 68.8022 -434.433 -249.629 -261.201
1342 2 16.9249 20.9437 20.5035 10674.8 18041.4 -160637 12.5878 -47750.1 0.99967
1621 2 19.3469 8.37748 13.6742 39706.2 40105.8 812.441 -467.719 -188.241 -164.693
1615 2 19.347 8.37745 6.83856 39655.5 39663.7 -57.4354 -176.012 -118.757 -221.177
22 2 2.41829 1.39617 20.5097 39701.8 38244.7 -1431.33 -407.037 -191.405 -181.568
23 2 0.806054 1.39619 22.7883 37576.2 36205.5 -47444.9 -339.644 -134.691 -112.322
24 2 4.03063 1.39618 25.0698 -196382 -198280 49218.5 -105.95 -42.8744 -33.3948
25 2 0 2.7925 0 -196868 -196918 49044.6 -2.96064 -46.5652 -7.36887
26 2 3.22448 2.79249 2.28146 37390 37240.3 -47982.9 -59.8149 -122.273 -63.0516
27 2 1.61223 2.79249 4.56003 39651.4 39540 -1866.73 -60.4197 -125.431 -43.9154
28 2 2.41837 4.18874 0 -196877 -196941 48973.6 -13.3392 -63.4225 -31.6555
29 2 0.806113 4.18874 2.28147 37393.4 37329.7 -47803.9 -38.0896 -90.9262 -28.7506
30 2 4.0306 4.18872 4.56002 39669.5 39460.4 -2007.72 -121.411 -157.003 -118.016
31 2 -2.51315e-05 2.79249 6.83856 39583.9 39523.3 -213.554 -51.4924 -131.277 -24.9846
32 2 3.22445 2.79246 9.11706 39539.6 39168.9 -360.292 -192.151 -254.435 -169.232
33 2 1.61219 2.79246 11.3956 39429.5 39131.1 -256.026 -225.372 -274.293 -167.694
34 2 2.41834 4.18872 6.83855 39584.8 39420.2 -338.69 -133.452 -182.893 -101.567
35 2 0.806086 4.18872 9.11708 39522.6 39429.2 -219.538 -135.08 -193.18 -83.3957
36 2 4.03055 4.18868 11.3956 39483.4 38939.9 -381.713 -389.521 -356.677 -353.604
1341 2 16.1076 19.5425 25.0633 -426536 -277962 55176.5 -198494 -50340.6 -3910.96
38 2 3.22439 2.79241 15.9526 39376 38377.8 -111.623 -558.686 -362.796 -388.075
39 2 1.61214 2.79241 18.2312 39339.7 38415.9 6.09595 -588.753 -292.463 -321.204
40 2 2.41829 4.18867 13.6741 39342.9 38889.8 -239.24 -468.191 -370.167 -351.338
41 2 0.806026 4.18867 15.9526 39252.1 38892 -98.4477 -523.934 -328.853 -331.235
42 2 4.03049 4.18858 18.2311 39376 37930.2 -32.6893 -884.69 -397.556 -549.392
1340 2 17.7278 19.5453 22.7755 76906.3 -2631.82 -448113 22887.2 -124334 -159544
44 2 3.22444 2.79238 22.7883 37665.1 35805.8 -47421 -451.657 -139.009 -159.799
45 2 1.61221 2.7924 25.0698 -196410 -198267 49227.3 -334.488 -54.239 -64.813
46 2 2.41825 4.18859 20.5097 39460.5 38065.5 -1462.59 -826.595 -279.829 -378.801
47 2 0.806022 4.18861 22.7883 37422.9 35974.6 -47443.5 -675.889 -163.847 -225.031
48 2 4.03062 4.18859 25.0698 -196438 -198648 49225.7 -274.074 -51.8465 -68.3577
49 2 0 5.58499 0 -196861 -196908 49077.4 -4.5743 -42.1238 -9.36973
50 2 3.22448 5.58498 2.28146 37382.5 37267.6 -47963.4 -85.2084 -122.339 -85.9084
51 2 1.61223 5.58498 4.56004 39655.2 39588.8 -1814.43 -77.7645 -118.553 -50.4945
52 2 2.41837 6.98124 0 -196870 -196935 48999.3 -16.5572 -60.0566 -36.6519
53 2 0.806115 6.98123 2.28147 37398.5 37356.9 -47732.5 -37.967 -79.709 -31.401
54 2 4.0306 6.98121 4.56002 39652.1 39515.4 -2009.61 -147.489 -164.95 -134.651
55 2 -2.14683e-05 5.58498 6.83856 39612 39593.9 -142.711 -57.8409 -116.717 -17.6824
56 2 3.22445 5.58495 9.11706 39531.1 39303.6 -370.465 -259.842 -272.432 -215.253
57 2 1.61219 5.58495 11.3956 39448.7 39323.2 -229.649 -284.825 -280.72 -203.446
58 2 2.41834 6.98121 6.83855 39592.2 39518.2 -289.811 -144.237 -176.511 -99.4527
59 2 0.806093 6.98122 9.11708 39568.7 39569.1 -138.384 -128.353 -171.045 -69.172
60 2 4.03055 6.98115 11.3956 39458.5 39152.9 -442.161 -449.646 -407.416 -409.459
1339 2 14.5086 19.5469 20.507 36262.9 40722.4 -18090.8 -11307.2 -11554.2 532.33
62 2 3.22437 5.58485 15.9526 39220.8 38534.5 -216.218 -809.581 -495.819 -591.899
63 2 1.61212 5.58485 18.2312 39163.2 38518.4 -36.753 -856.392 -406.251 -503.009
64 2 2.41829 6.98115 13.6741 39347.6 39169.9 -242.318 -506.582 -410.775 -400.508
65 2 0.806028 6.98115 15.9527 39281.1 39182.6 -65.2044 -556.284 -373.437 -393.755
66 2 4.03046 6.981 18.2311 38978.2 37948.8 -196.211 -1208.3 -625.385 -830.811
1338 2 18.5419 20.9437 18.2354 43378.5 37646.9 75788.1 2.71984 62035.5 -0.560228
68 2 3.22439 5.58477 22.7883 37286.2 35362.6 -47421.4 -832.326 -199.416 -286.506
69 2 1.61219 5.58481 25.0698 -196611 -198693 49232.6 -557.476 -59.5805 -105.49
70 2 2.41821 6.98101 20.5097 39003.9 37943.5 -1510.16 -1129.73 -427.573 -584.077
71 2 0.805985 6.98103 22.7883 37013.6 35689.3 -47421.5 -900.991 -213.521 -332.905
72 2 4.03058 6.98097 25.0698 -196854 -199124 49247 -584.961 -72.0884 -109.628
73 2 0 8.37749 0 -196859 -196895 49107.5 -8.31165 -33.3394 -12.3455
74 2 3.22448 8.37747 2.28146 37370 37301.4 -47925.6 -86.1236 -114.066 -90.0081
75 2 1.61223 8.37747 4.56004 39658.7 39641.8 -1746.5 -62.3775 -101.471 -43.914
76 2 2.41837 9.77373 0 -196869 -196924 49018.3 -19.8503 -48.2792 -37.4752
77 2 0.806118 9.77373 2.28147 37387.6 37379.8 -47690.7 -19.4778 -55.0429 -35.8649
78 2 4.0306 9.77371 4.56002 39627.5 39581.4 -1998.85 -127.939 -153.07 -124.916
1337 2 15.3158 20.9437 15.9508 38567.4 36124.7 -30562.4 4.83185 -5817.98 1.50205
80 2 3.22446 8.37744 9.11706 39544.5 39474.4 -334.85 -242.812 -264.734 -198.887
81 2 1.61221 8.37744 11.3956 39520 39552.6 -144.891 -231.979 -250.008 -178.722
82 2 2.41835 9.77371 6.83856 39601.3 39619.9 -232.477 -98.2484 -142.385 -82.6386
83 2 0.806108 9.77371 9.11709 39627.1 39703.5 -52.6528 -59.3922 -115.312 -56.887
84 2 4.03057 9.77365 11.3956 39471.2 39424.4 -434.633 -361.565 -390.254 -368.205
85 2 -4.81354e-05 8.37745 13.6741 39519.3 39637.2 6.14969 -234.137 -224.301 -187.486
86 2 3.22438 8.37732 15.9526 39148.6 38881.2 -275.175 -783.514 -592.917 -675.523
87 2 1.61212 8.37732 18.2312 39057.6 38785 -28.2059 -812.583 -501.508 -614.766
88 2 2.41832 9.77365 13.6741 39438.3 39503.4 -169.357 -341.538 -363.002 -361.194
89 2 0.806064 9.77365 15.9527 39440.9 39523.5 49.2538 -333.089 -328.552 -392.308
90 2 4.03047 9.77346 18.2311 38582.1 38337.5 -355.949 -1091.29 -808.913 -995.618
1336 2 16.9288 20.9437 13.6741 40073.2 40970.5 1200.09 -0.196339 9710.61 -4.51094
92 2 3.22434 8.37716 22.7883 36299.2 34962.7 -47451.2 -1194.98 -323.782 -451.09
93 2 1.61215 8.3772 25.0698 -197427 -199070 49251.8 -714.338 -69.6747 -137.896
94 2 2.41822 9.77344 20.5097 38363.7 38097.8 -1559.43 -988.236 -572.673 -761.705
95 2 0.805987 9.77344 22.7883 36132.5 35527.6 -47374.1 -715.775 -275.043 -442.642
96 2 4.03049 9.77335 25.0698 -198228 -199424 49289 -1194.73 -120.263 -174.628
97 2 0 11.17 0 -196873 -196886 49090.5 -16.9783 -11.4658 -21.8228
98 2 3.22449 11.17 2.28146 37335.3 37335.5 -47922.7 -59.4648 -81.0601 -86.0386
99 2 1.61224 11.17 4.56004 39638.4 39689.9 -1737.46 -15.4111 -56.7352 -46.8953
100 2 2.41837 12.5662 0 -196890 -196914 48986.4 -25.4387 -17.1931 -39.8422
101 2 0.806125 12.5662 2.28147 37331.4 37398 -47787.1 10.9579 3.16589 -52.1869
102 2 4.03061 12.5662 4.56002 39568.6 39650.2 -2044.66 -65.6578 -93.8866 -111.195
1335 2 16.1214 19.5473 18.2282 38079.6 31534.3 -61473.4 554.105 -13450.3 -11852.7
104 2 3.22448 11.1699 9.11706 39554.3 39645.3 -299.196 -134.153 -190.715 -167.985
105 2 1.61224 11.1699 11.3956 39597.4 39759.9 -74.9703 -74.2423 -140.301 -164.599
106 2 2.41837 12.5662 6.83855 39566.7 39711.1 -269.002 -8.22068 -48.0032 -89.4955
107 2 0.806137 12.5662 9.11708 39633.3 39811.8 -94.3154 55.1229 14.0035 -99.2957
108 2 4.03062 12.5662 11.3956 39427.4 39693 -445.067 -132.88 -229.22 -305.695
109 2 -3.79665e-06 11.17 13.6741 39683.3 39873.4 105.773 -32.1275 -97.7286 -205.336
110 2 3.22444 11.1698 15.9526 39152.2 39348.3 -249.37 -389.755 -498.958 -613.214
111 2 1.61219 11.1698 18.2312 39013.2 39165.6 34.6845 -289.508 -421.327 -636.083
112 2 2.41839 12.5662 13.6741 39442.9 39798.1 -161.198 -4.28549 -138.274 -332.971
113 2 0.806161 12.5661 15.9526 39482.7 39806.4 73.3362 131.697 -75.8938 -423.748
114 2 4.03058 12.566 18.2311 38136.1 39074.4 -416.751 -333.41 -649.036 -903.347
115 2 -6.26283e-05 11.1698 20.5097 38921.2 38766.1 -1288.65 -184.888 -312.474 -621.121
116 2 3.22431 11.1696 22.7883 34441.4 35081 -47538.2 -1211.39 -533.325 -676.35
117 2 1.61213 11.1696 25.0698 -199505 -198949 49287.9 -688.5 -108.847 -158.823
118 2 2.41833 12.5659 20.5097 37406.6 38651.4 -1618.22 -57.2246 -466.737 -831.139
119 2 0.806098 12.5659 22.7883 34374.1 35784.3 -47398.3 300.507 -250.761 -584.993
120 2 4.03035 12.5658 25.0697 -201236 -199086 49346.5 -2231.14 -270.946 -266.804
121 2 0 13.9625 0 -196924 -196888 48970.8 -28.8199 36.0584 -37.7445
122 2 3.2245 13.9625 2.28146 37251 37368.1 -48050.5 -17.0451 -2.38998 -83.4241
123 2 1.61226 13.9625 4.56003 39554.4 39737.1 -1908.46 43.1207 45.2819 -73.819
124 2 2.41837 15.3587 0 -196945 -196914 48864.7 -29.9983 41.6899 -42.3647
125 2 0.806137 15.3587 2.28146 37210.9 37418 -48115.7 35.3358 115.032 -73.3986
126 2 4.03063 15.3587 4.56001 39435.9 39718.2 -2239.33 8.13802 38.2592 -103.182
127 2 2.3468e-05 13.9625 6.83855 39585.4 39789 -276.241 96.304 107.503 -105.474
128 2 3.22452 13.9624 9.11705 39453.6 39792.2 -409.614 31.379 7.26849 -169.572
129 2 1.6123 13.9624 11.3956 39512.4 39919.6 -225.004 154.24 133.076 -216.683
130 2 2.41841 15.3587 6.83853 39412.9 39792.8 -535.877 85.854 151.218 -123.997
131 2 0.806189 15.3587 9.11704 39460.8 39900.4 -471.08 178.346 294.505 -194.269
132 2 4.0307 15.3587 11.3955 39073.3 39924.5 -667.113 147.311 177.156 -264.127
133 2 8.89538e-05 13.9625 13.6741 39635.6 40041.2 -74.9791 287.122 245.675 -323.613
134 2 3.22458 13.9623 15.9526 38681.9 39804.9 -373.537 256.983 -35.2571 -532.262
135 2 1.61238 13.9623 18.2311 38147.4 39588.5 -151.885 668.95 111.952 -652.393
136 2 2.41852 15.3587 13.6741 38874.1 40046.8 -516.539 425.699 463.413 -348.279
137 2 0.806355 15.3587 15.9526 38481.6 40066.2 -447.06 846.047 763.654 -517.541
138 2 4.03077 15.3585 18.2311 37130.5 39895.8 -504.318 425.83 -84.0617 -697.489
139 2 0.000173424 13.9622 20.5097 37297.9 39056.2 -1502.51 1220.38 199.251 -761.265
140 2 3.22437 13.9621 22.7882 32572.6 36057.1 -47527.8 -538.804 -641.541 -849.84
141 2 1.61213 13.9621 25.0698 -202273 -198086 49328.8 -461.074 -181.432 -205.567
142 2 2.41855 15.3584 20.5096 35764.8 39524.1 -1737.46 876.163 30.3988 -774.085
143 2 0.806315 15.3584 22.7882 31873.2 36665.1 -47477.7 1249.87 24.3263 -683.885
144 2 4.0302 15.3583 25.0697 -204620 -197943 49400.2 -2310.74 -549.297 -319.244
145 2 0 16.755 0 -197010 -196907 48744.9 -33.0045 109.395 -45.8533
146 2 3.22451 16.755 2.28145 37111.8 37399.2 -48346.3 15.5687 126.867 -73.1497
147 2 1.61228 16.755 4.56001 39384.9 39788.1 -2317.24 75.7854 225.085 -97.7095
148 2 2.41837 18.1512 0 -197019 -196923 48687.6 -23.2469 115.364 -32.0998
149 2 0.80615 18.1512 2.28144 37058.8 37439.6 -48590.5 32.6252 262.773 -64.9025
150 2 4.03066 18.1512 4.55999 39241.7 39776.4 -2554.16 40.5765 224.484 -73.8539
151 2 6.25336e-05 16.755 6.8385 39376.2 39851 -855.469 132.203 368.172 -179.566
152 2 3.22458 16.7549 9.11701 39097.8 39914.4 -800.264 168.482 393.739 -173.041
153 2 1.6124 16.755 11.3955 38938.9 40053.4 -846.566 367.843 741.608 -270.256
154 2 2.41845 18.1512 6.83849 39119.5 39862.2 -1018.46 111.757 458.276 -113.891
155 2 0.806258 18.1512 9.11697 38989.7 39976.9 -1243.7 218.336 803.741 -203.335
156 2 4.03079 18.1512 11.3955 38440.3 40112.6 -1066.34 231.387 733.728 -179.056
157 2 0.000252892 16.755 13.674 38642.9 40192.7 -1026.11 690.778 1204.77 -448.932
158 2 3.22477 16.7549 15.9525 37450.7 40259.4 -737.521 672.097 818.716 -421.745
159 2 1.61264 16.7548 18.231 36072.9 40167.7 -630.706 1268.92 1184.34 -589.886
160 2 2.41867 18.1512 13.674 37761.6 40287.9 -1160.14 510.193 1338.48 -269.464
161 2 0.80659 18.1512 15.9524 36469.6 40420.8 -1382.62 979.089 2095.41 -433.909
162 2 4.03095 18.1511 18.231 35806.7 40605.5 -616.682 549.425 645.898 -399.232
163 2 0.00052709 16.7548 20.5095 33976.8 39833.5 -1976.54 2077.57 1353.1 -777.014
164 2 3.22449 16.7547 22.7882 31150 37353.3 -47481.8 62.3225 -563.967 -753.094
165 2 1.61216 16.7547 25.0697 -204770 -197037 49359.5 -204.871 -245.931 -225.611
166 2 2.41878 18.1511 20.5095 33892.4 40431 -1855.95 910.528 726.493 -501.058
167 2 0.806537 18.151 22.7881 29475.6 37755 -47509.8 1148.41 502.395 -515.716
168 2 4.03011 18.151 25.0697 -207075 -196829 49432.2 -1388.34 -806.391 -226.621
169 2 0 19.5475 0 -197088 -196929 48538 -15.947 173.91 -23.2972
170 2 3.22452 19.5475 2.28144 36982.5 37420.9 -48644.3 13.4625 250.666 -32.0676
171 2 1.6123 19.5475 4.55998 39201.5 39826.6 -2751.66 42.8919 419.089 -51.608
172 2 2.41837 20.9437 0 -197058 -196929 48593.9 -0.305077 154.108 -0.483178
173 2 0.806157 20.9437 2.28143 36978.8 37449.5 -48845.2 0.373159 346.155 -0.653288
174 2 4.03067 20.9437 4.55998 39138 39801.6 -2723.92 0.0137379 323.122 -0.8688
175 2 0.00010007 19.5475 6.83845 39088.2 39897.7 -1543.61 77.2163 700.343 -103.069
176 2 3.22464 19.5475 9.11697 38685.9 40000 -1230.35 106.157 779.09 -82.0465
177 2 1.61249 19.5475 11.3954 38200.1 40165.7 -1558.97 221.277 1398.59 -138.352
178 2 2.41847 20.9437 6.83847 38947 39893.6 -1289.84 1.19041 630.417 -0.520711
179 2 0.806293 20.9437 9.11693 38682.6 40015.7 -1701.33 2.46344 1112.53 -0.531454
180 2 4.03084 20.9437 11.3955 38097.4 40193.9 -1279.89 3.35655 1013.29 0.363009
181 2 0.000407572 19.5475 13.6739 37249.5 40367.5 -2168.76 430.017 2338.6 -240.519
182 2 3.22491 19.5474 15.9525 36250.4 40601.3 -1080.71 369.861 1575.05 -172.049
183 2 1.61285 19.5474 18.2309 34113.8 40688 -1046.9 665.426 2168.85 -256.62
184 2 2.41874 20.9437 13.6739 37147.2 40406.5 -1501.41 5.09472 1789.38 0.0383603
185 2 0.806702 20.9437 15.9524 35354.9 40623 -1871.76 5.71479 2801.95 -1.05965
186 2 4.03103 20.9437 18.231 35165.3 40901.8 -669.368 9.06086 993.942 0.854388
187 2 0.000803984 19.5474 20.5094 31015.7 40658.7 -2325.86 1059.41 2469.95 -356.732
188 2 3.22459 19.5473 22.7881 30338.4 38247.5 -47456.7 122.42 -412.974 -305.088
189 2 1.61218 19.5474 25.0696 -206254 -196395 49373.5 -47.1592 -268.947 -106.481
190 2 2.41887 20.9437 20.5095 33027.6 40833.9 -1902.09 7.44769 1069.61 -0.668022
191 2 0.806632 20.9437 22.788 28447.1 38255.6 -47505.4 3.24742 760.061 -1.29242
192 2 4.03008 20.9437 25.0696 -207956 -196392 49442.3 7.53029 -901.875 0.584332
385 2 4.83674 0 0 -196893 -196951 48918.5 -7.19981 -67.9935 -16.3661
1597 2 19.3469 5.58498 13.6742 39827.5 39828.7 657.359 -278.87 -75.1323 -73.5862
1573 2 19.347 2.79249 13.6742 39832.8 39756.5 566.983 -126.416 -1.55096 -0.644934
388 2 7.25512 1.39625 0 -196898 -196941 48926.3 -18.9469 -57.2056 -39.7139
389 2 5.64285 1.39624 2.28146 37422 37188.7 -48044.3 -49.4788 -121.311 -68.9382
390 2 8.86734 1.39623 4.56003 39801.1 39443.1 -1874.34 -43.0968 -76.4788 -87.8914
1334 2 17.7352 19.548 15.9536 41557 42753.6 17125.5 3390.85 22854.1 8098.5
1333 2 14.5101 19.5474 13.673 39392.4 38248.4 -15799.6 147.488 -2292.21 -1412.2
1332 2 18.5411 20.9437 11.3961 38784.4 40945.6 10201.2 -1.73997 5434.82 -8.5503
394 2 7.25508 1.39622 6.83854 39751.1 39219.7 -371.15 -88.7329 -143.464 -135.649
395 2 5.64282 1.39622 9.11705 39663.7 38998.1 -361.301 -152.143 -231.986 -177.421
396 2 8.86731 1.3962 11.3956 39892.1 38844.6 -47.0253 -129.073 -121.076 -227.793
1331 2 15.3164 20.9437 9.11675 39679.7 40254.5 -3970.88 -2.41815 1891.36 -7.46139
1330 2 16.9287 20.9437 6.8385 39439.8 40373.5 -101.473 -2.26559 1877.46 -8.15801
1329 2 16.1226 19.5475 11.3953 39913.8 40732.7 -2904.73 521.772 4220.63 342.339
400 2 7.25504 1.39618 13.6741 39815.5 38395.6 -68.3978 -264.276 -220.657 -302.545
401 2 5.64278 1.39617 15.9526 39696 38104 -10.6978 -383.648 -270.104 -312.962
402 2 8.86734 1.39616 18.2312 40240.8 38166.8 293.777 -139.981 45.2978 -165.885
1328 2 17.7349 19.5475 9.11717 39277.3 40785.6 2983.5 306.042 3211.38 692.512
1327 2 14.5103 19.5475 6.8383 39651.1 39995.9 -3669.22 92.4043 784.172 -106.141
1326 2 18.5409 20.9437 4.56006 39352.8 40091 -877.662 -1.46073 875.986 -6.67291
406 2 7.2551 1.39616 20.5097 40273.2 38046 -1343.43 -190.362 -22.4706 -130.993
407 2 5.64286 1.39617 22.7883 37949.6 35887.2 -47421 -161.656 -69.0007 -77.6091
408 2 8.86746 1.39619 25.0698 -196317 -197954 49154.9 243.84 34.4691 16.4822
409 2 4.83674 2.7925 0 -196893 -196957 48905.6 -21.05 -71.4838 -47.9915
410 2 8.06123 2.79248 2.28146 37454.5 37203.6 -48028.7 -62.1838 -97.1989 -112.612
411 2 6.44897 2.79247 4.56002 39737.5 39389.4 -2043.71 -101.372 -139.702 -138.666
412 2 7.25512 4.18874 0 -196906 -196958 48875.3 -36.9027 -66.296 -78.6095
413 2 5.64285 4.18873 2.28146 37407.9 37193.3 -48106.6 -96.5222 -133.585 -128.727
414 2 8.86734 4.18871 4.56002 39796.2 39428.2 -2029.98 -90.1603 -95.7607 -183.343
415 2 4.83671 2.79247 6.83854 39643.3 39253.8 -451.337 -149.388 -201.2 -161.215
416 2 8.06119 2.79244 9.11705 39791.9 39032.1 -323.634 -170.879 -172.986 -284.97
417 2 6.44892 2.79243 11.3956 39681.2 38711.9 -332.049 -318.611 -293.714 -376.514
418 2 7.25508 4.1887 6.83853 39729.6 39225.8 -522.354 -177.105 -183.287 -264.716
419 2 5.64281 4.18869 9.11704 39624.9 39055.7 -483.325 -286.677 -285.37 -326.501
420 2 8.8673 4.18865 11.3956 39862.9 38762.8 -313.499 -273.488 -214.703 -506.56
421 2 4.83665 2.79241 13.6741 39518.2 38475.5 -248.828 -462.7 -368.223 -412.524
422 2 8.06116 2.79237 15.9526 39941.8 38007.8 50.1896 -426.298 -190.863 -470.315
423 2 6.44891 2.79235 18.2312 39843.6 37733.1 90.3996 -583.463 -227.287 -427.33
424 2 7.25502 4.18861 13.6741 39707.5 38300.4 -320.44 -548.809 -374.033 -648.244
425 2 5.64275 4.18859 15.9526 39501.4 38003.5 -196.262 -784.796 -444.016 -659.789
426 2 8.86729 4.18855 18.2312 40120.2 37488.4 153.793 -477.908 -110.539 -523.474
427 2 4.83667 2.79236 20.5097 39855.9 37827.7 -1408.51 -581.237 -195.642 -295.005
428 2 8.06127 2.79237 22.7883 38184.6 35826.2 -47411.1 38.7409 51.2379 -34.5136
429 2 6.44904 2.79238 25.0698 -196326 -198416 49196.9 30.1051 -14.1345 -26.7869
430 2 7.25505 4.18854 20.5097 40069.2 37354.7 -1381.88 -593.732 -134.148 -385.885
431 2 5.64283 4.18856 22.7883 37783.1 35345.3 -47403.7 -471.609 -110.548 -194.323
432 2 8.86746 4.18861 25.0698 -196150 -198287 49175.9 391.34 54.7116 18.2363
433 2 4.83674 5.58499 0 -196892 -196965 48889.7 -30.8751 -77.3779 -70.1912
434 2 8.06123 5.58497 2.28145 37439.2 37182.2 -48195.2 -105.379 -120.332 -185.613
435 2 6.44897 5.58496 4.56001 39714.8 39404.4 -2164.01 -161.054 -170.606 -210.297
436 2 7.25512 6.98124 0 -196915 -196984 48800.7 -51.3504 -81.6848 -111.018
437 2 5.64285 6.98122 2.28145 37384.3 37205.6 -48178.1 -130.154 -149.78 -166.667
438 2 8.86734 6.9812 4.56001 39785.1 39405.8 -2295.65 -135.629 -138.915 -278.864
439 2 4.83671 5.58495 6.83853 39619.2 39323.1 -514.027 -218.858 -230.801 -222.218
440 2 8.06119 5.58491 9.11703 39758.7 39024.8 -605.408 -277.588 -258.392 -475.321
441 2 6.44891 5.58488 11.3955 39601.5 38772.9 -573.889 -490.973 -414.868 -591.181
442 2 7.25508 6.98118 6.83851 39697.7 39251 -741.217 -246.354 -248.851 -361.11
443 2 5.64281 6.98116 9.11703 39584.7 39169.9 -622.679 -361.946 -351.12 -403.614
444 2 8.86729 6.9811 11.3955 39804.6 38708.3 -805.127 -402.389 -385.75 -815.057
445 2 4.83664 5.58486 13.6741 39396.6 38610.2 -422.958 -683.823 -503.474 -628.248
446 2 8.06112 5.58477 15.9526 39719.4 37641.9 -320.87 -825.743 -468.731 -958.154
447 2 6.44885 5.58474 18.2311 39452.8 37305.1 -138.49 -1117.32 -497.206 -856.515
448 2 7.255 6.98105 13.674 39536.5 38313.8 -739.777 -779.311 -616.135 -984.781
449 2 5.64272 6.98102 15.9526 39211.3 38068 -491.286 -1082.1 -704.86 -983.688
450 2 8.86721 6.9809 18.2311 39663.3 36599.8 -293.427 -1120.12 -535.381 -1220.06
451 2 4.83661 5.58475 20.5097 39395.7 37367.1 -1492.82 -1105.85 -370.347 -579.569
452 2 8.06123 5.58474 22.7883 38042.1 34860 -47366.7 -286.621 2.26164 -190.192
453 2 6.44902 5.58478 25.0697 -196365 -198915 49221 -138.326 -26.759 -59.3879
454 2 7.25496 6.98088 20.5096 39373 36414.3 -1574.89 -1345.37 -454.978 -873.799
455 2 5.64276 6.98092 22.7882 37116.4 34555 -47421.2 -1054.98 -244.658 -399.267
456 2 8.86743 6.98101 25.0697 -195982 -198999 49227.1 232.013 54.9976 -32.5189
457 2 4.83674 8.37749 0 -196889 -196970 48879.7 -35.9469 -80.2856 -79.0758
458 2 8.06122 8.37746 2.28145 37405.7 37160.9 -48427.7 -142.835 -155.454 -246.355
459 2 6.44896 8.37745 4.56001 39677 39438.1 -2300.19 -196.218 -207.607 -247.558
460 2 7.25512 9.77373 0 -196925 -197012 48715 -59.7026 -95.5843 -128.322
461 2 5.64285 9.77371 2.28145 37347.2 37230.4 -48243 -134.987 -153.718 -175.67
462 2 8.86734 9.77368 4.55999 39742.4 39395.6 -2665.71 -174.78 -208.262 -358.665
463 2 4.83671 8.37744 6.83853 39593.9 39423.7 -554.22 -234.882 -251.696 -229.18
464 2 8.06119 8.37738 9.11699 39711.1 39062.9 -991.245 -348.891 -381.212 -618.94
465 2 6.44892 8.37735 11.3955 39527 38947.8 -838.524 -555.176 -540.786 -698.321
466 2 7.25508 9.77366 6.83849 39637.9 39317.4 -984.467 -276.789 -320.606 -401.275
467 2 5.64282 9.77365 9.11702 39541.2 39342.4 -724.157 -346.57 -384.923 -393.77
468 2 8.86729 9.77356 11.3954 39714.7 38774.3 -1469.17 -468.172 -607.554 -1047.34
469 2 4.83665 8.37734 13.6741 39323.4 38913.3 -568.868 -704.587 -611.014 -707.144
470 2 8.06108 8.37717 15.9525 39305.9 37519.7 -990.671 -1204.67 -923.612 -1534.04
471 2 6.44879 8.37713 18.2311 38743.7 37167.7 -570.365 -1605.42 -939.634 -1366.56
472 2 7.25501 9.77351 13.674 39364 38592.5 -1205.75 -814.663 -846.409 -1156.16
473 2 5.64274 9.77347 15.9525 38961.5 38494.5 -779.619 -1033.59 -910.717 -1127
474 2 8.86712 9.77324 18.2309 38644.3 36172.3 -1266.15 -1937.43 -1367.49 -2221.21
475 2 4.83655 8.37713 20.5096 38454.4 37098.1 -1692.12 -1599.57 -681.803 -942.54
476 2 8.0611 8.37706 22.7882 37154.3 33418.3 -47414.7 -1301.06 -267.837 -603.525
477 2 6.44894 8.37715 25.0697 -196856 -199603 49273.8 -760.647 -79.6544 -138.516
478 2 7.25484 9.77321 20.5095 37796.1 35874.7 -2083.48 -2349.32 -1131.96 -1616.71
479 2 5.64264 9.77326 22.7882 35370.9 33936.7 -47556.2 -1962.14 -575.816 -752.074
480 2 8.86729 9.77335 25.0696 -196254 -200347 49309.4 -825.45 -36.6365 -218.414
481 2 4.83674 11.17 0 -196894 -196969 48862.8 -37.8724 -69.4918 -76.6189
482 2 8.06122 11.17 2.28144 37344.3 37158.5 -48697.5 -155.023 -181.791 -271.163
483 2 6.44897 11.1699 4.56 39616.6 39500.5 -2433.38 -181.165 -218.813 -240.501
484 2 7.25512 12.5662 0 -196942 -197035 48619.9 -60.1073 -93.2086 -124.439
485 2 5.64286 12.5662 2.28145 37280.5 37266.6 -48334.7 -104.237 -121.102 -160.125
486 2 8.86734 12.5662 4.55996 39649.9 39431.4 -3079.76 -175.511 -265.411 -371.381
487 2 4.83672 11.1699 6.83853 39556.5 39545.2 -582.112 -176.507 -224.534 -200.003
488 2 8.0612 11.1699 9.11695 39590.5 39189.4 -1401.6 -368.046 -500.656 -656.77
489 2 6.44894 11.1698 11.3955 39420.7 39243 -1029.01 -471.6 -579.093 -648.155
490 2 7.25509 12.5662 6.83847 39532.9 39441.7 -1208.55 -228.041 -334.924 -363.101
491 2 5.64285 12.5662 9.11701 39454.9 39551.9 -803.49 -215.846 -313.248 -326.315
492 2 8.86732 12.566 11.3954 39435.7 39030.6 -2107.62 -484.022 -795.245 -1041.8
493 2 4.83669 11.1698 13.674 39279.8 39339.9 -612.189 -469.01 -560.156 -616.493
494 2 8.06109 11.1696 15.9524 38868 38026 -1773.76 -1231.85 -1373.16 -1851.74
495 2 6.4488 11.1696 18.231 37967.6 37812.7 -1074.25 -1548.77 -1364.9 -1674.74
496 2 7.25507 12.566 13.6739 39080.2 39135.7 -1493.64 -614.73 -871.844 -996.847
497 2 5.64282 12.566 15.9525 38684.1 39221.8 -884.153 -542.807 -792.485 -933.704
498 2 8.8671 12.5657 18.2308 37688.9 37133.6 -2523.37 -2172.29 -2385.89 -2907.52
499 2 4.83653 11.1696 20.5096 37147.8 37551.6 -1976.09 -1551.99 -1041.2 -1261.97
500 2 8.06087 11.1693 22.788 34478.2 32120.8 -47741.7 -3381.15 -1055.54 -1391.8
501 2 6.44875 11.1695 25.0696 -198664 -200295 49354.1 -2349.14 -226.785 -310.927
502 2 7.25477 12.5656 20.5094 35927.8 36802.7 -2806.94 -2761.58 -2106.21 -2287.97
503 2 5.64252 12.5657 22.7881 32524.3 34387.8 -47795.1 -2763.08 -1225.74 -1234.38
504 2 8.86692 12.5656 25.0694 -198512 -202449 49405.6 -3917.47 -358.563 -617.495
505 2 4.83674 13.9625 0 -196920 -196966 48804.4 -37.6762 -33.5493 -67.4583
506 2 8.06123 13.9625 2.28143 37244.4 37181.4 -48983.8 -127.81 -168.634 -244.615
507 2 6.44898 13.9624 4.55999 39507.7 39584.1 -2594.12 -114.341 -166.149 -200.37
508 2 7.25512 15.3587 0 -196974 -197050 48507 -51.2074 -63.6845 -99.6548
509 2 5.64287 15.3587 2.28144 37166.3 37308 -48511.3 -52.4532 -35.3138 -127.397
510 2 8.86735 15.3587 4.55994 39497.8 39509.5 -3465.45 -124.914 -261.867 -298.835
511 2 4.83675 13.9624 6.83852 39448.4 39668.5 -686.043 -62.5093 -104.634 -168.921
512 2 8.06123 13.9624 9.11692 39367.7 39422.7 -1720.64 -268.315 -497.352 -540.141
513 2 6.449 13.9624 11.3955 39172.7 39603.8 -1158.24 -223.95 -407.426 -492.749
514 2 7.25512 15.3587 6.83845 39337.5 39593 -1427.63 -116.424 -237.458 -269.974
515 2 5.6429 15.3587 9.11699 39204.2 39754.3 -967.172 -29.179 -74.3392 -245.928
516 2 8.86737 15.3586 11.3953 39005.3 39469.6 -2440.47 -334.184 -765.531 -739.81
517 2 4.83679 13.9624 13.674 38977.6 39774.6 -694.541 -44.0581 -223.664 -477.387
518 2 8.06117 13.9621 15.9523 38387.7 39101.9 -2053.56 -898.331 -1418.64 -1416.77
519 2 6.44891 13.9621 18.2309 37498.2 39153 -1123.73 -784.48 -1277.83 -1300.92
520 2 7.25516 15.3585 13.6739 38578.5 39772.1 -1571.53 -254.67 -587.919 -660.084
521 2 5.64297 15.3585 15.9525 38026.8 39969.9 -923.585 18.4702 -312.352 -636.826
522 2 8.86718 15.3582 18.2307 37405.5 39292.8 -2544.33 -1546.45 -2513.07 -1874.17
523 2 4.83664 13.9621 20.5096 36236 38832.4 -1989.92 -626.033 -1030.87 -1186.02
524 2 8.06055 13.9617 22.7879 29789.6 32882.4 -48498.5 -5582.64 -2885.63 -2509.57
525 2 6.44838 13.9619 25.0696 -203919 -200121 49440.4 -5215.52 -728.349 -490.921
526 2 7.25485 15.3582 20.5094 35712.3 39173.3 -2658.28 -1569.28 -2287.03 -1762.76
527 2 5.64249 15.3582 22.7881 31039.7 36265.6 -47677.7 -1924.16 -1635.95 -1382.88
528 2 8.8661 15.3579 25.0693 -209979 -202940 49488.2 -11288.2 -1886.53 -930.724
529 2 4.83674 16.755 0 -196971 -196966 48689.4 -31.4801 27.6321 -50.6952
530 2 8.06124 16.755 2.28142 37112.1 37217.3 -49264.8 -73.6034 -106.753 -170.179
531 2 6.449 16.7549 4.55998 39334.8 39668.1 -2812.94 -35.4904 -39.473 -138.181
532 2 7.25512 18.1512 0 -197015 -197059 48392 -30.8428 -17.3794 -56.7285
533 2 5.64288 18.1512 2.28144 37027.3 37343.5 -48747.6 -11.5654 81.2924 -74.6997
534 2 8.86736 18.1512 4.55992 39328 39589 -3753.06 -56.2766 -204.408 -164.666
535 2 4.83678 16.7549 6.83849 39209.9 39777.4 -940.881 40.6212 129.505 -133.889
536 2 8.06127 16.7549 9.11689 39026.8 39673.1 -1929.14 -117.204 -344.269 -336.855
537 2 6.44908 16.7549 11.3954 38692.6 39931.2 -1301.47 6.21567 -36.4406 -306.47
538 2 7.25515 18.1512 6.83844 39089.2 39719.4 -1631.04 -25.0869 -68.8881 -145.593
539 2 5.64296 18.1512 9.11696 38822 39912 -1209.97 65.0836 258.291 -143.09
540 2 8.86742 18.1511 11.3953 38515.2 39857.4 -2502.39 -143.575 -586.821 -352.42
541 2 4.83692 16.7549 13.674 38237.1 40158 -917.606 262.073 384.826 -327.021
542 2 8.06128 16.7547 15.9523 37745.8 40186.8 -1891.86 -433.948 -1085.05 -772.131
543 2 6.44907 16.7547 18.2309 36832.6 40382.6 -957.069 -179.247 -841.535 -753.337
544 2 7.25525 18.1511 13.6739 37930.9 40267.2 -1550.53 -28.288 -169.581 -310.415
545 2 5.6431 18.1511 15.9524 37119 40550.4 -962.102 212.558 304.679 -321.642
546 2 8.86728 18.151 18.2307 36923.5 41008.1 -2018.81 -780.354 -2165.9 -778.631
547 2 4.83681 16.7547 20.5095 35386.3 40170.2 -1886.85 52.5291 -697.062 -823.336
548 2 8.06045 16.7544 22.7878 29329.2 36584.4 -48164.5 -3362 -3649.66 -2368.53
549 2 6.44804 16.7545 25.0696 -209168 -198215 49509.8 -4815.05 -1435.33 -491.494
550 2 7.25496 18.1509 20.5094 35635.2 41025.7 -2302.33 -661.419 -2050.54 -862.36
551 2 5.64254 18.1509 22.7881 30766.3 38036.6 -47554.3 -832.05 -1753.61 -900.015
552 2 8.86546 18.1506 25.0692 -219191 -198605 49570.6 -8222.05 -3383.89 -755.582
553 2 4.83674 19.5475 0 -197020 -196969 48578.2 -13.1924 84.0448 -20.2299
554 2 8.06124 19.5475 2.28142 37006.1 37244.4 -49460.2 -22.5581 -41.8731 -62.4858
555 2 6.44902 19.5475 4.55997 39180.1 39724.1 -3001.21 -1.01003 83.7629 -51.7227
556 2 7.25512 20.9437 0 -197036 -197063 48338.5 -0.629237 6.81165 -1.2773
557 2 5.64288 20.9437 2.28143 36958.8 37358.4 -48868.6 -0.846421 140.763 -1.48004
558 2 8.86737 20.9437 4.55992 39249.2 39623.2 -3865.11 -1.87753 -168.581 -2.71329
559 2 4.83681 19.5475 6.83847 38966.1 39848.8 -1202.94 38.4843 353.4 -55.9749
560 2 8.0613 19.5474 9.11687 38734.5 39833.9 -2037.21 -22.9824 -178.249 -112.914
561 2 6.44914 19.5474 11.3954 38245.2 40134 -1420.54 43.9716 296.914 -104.66
562 2 7.25516 20.9437 6.83843 38967.2 39770.3 -1723.1 -0.756221 19.0622 -1.5369
563 2 5.64298 20.9437 9.11695 38623 39975.4 -1336.81 1.14819 424.422 -0.302159
564 2 8.86744 20.9437 11.3953 38283.1 40009.7 -2490.07 1.77753 -485.656 0.131929