ITEM: TIMESTEP
100
ITEM: NUMBER OF ATOMS
3074
ITEM: BOX BOUNDS pp pp pp
0.0000000000000000e+00 3.8693948398131120e+01
0.0000000000000000e+00 4.4679925159782847e+01
0.0000000000000000e+00 6.0000000000000000e+01
ITEM: ATOMS id type x y z v_stress_xx v_stress_yy v_stress_zz v_stress_xy v_stress_xz v_stress_yz
1 2 0 0 0 2480.77 2480.79 -619.666 -0.00101275 0.0100953 -0.00213632
1693 2 19.3473 16.7553 13.6744 -2509.77 -2908.04 -531.283 -105.995 -239.149 -479.875
1675 2 19.3467 13.9632 20.5102 -2670.28 -3230.89 -1377.17 107.364 -509.478 -657.36
4 2 2.41837 1.39625 0 2480.78 2480.89 -619.389 0.0177715 0.0850771 0.0495861
5 2 0.806124 1.39625 2.28147 -2436.91 -2437.27 3076.36 0.341062 0.436806 0.200167
6 2 4.03061 1.39624 4.56006 -2575.84 -2573.2 129.051 3.46256 4.51027 2.90213
1344 2 18.4907 20.9438 25.0319 49150.6 23634.6 40795.4 -24.4761 19446.9 4.92415
1663 2 19.347 13.9625 6.83843 -2566.06 -2581.45 115.597 10.3389 -3.3303 8.46956
1651 2 19.3469 11.1704 20.5098 -2538.11 -3015.33 -282.528 21.4933 -122.187 -217.058
10 2 2.41837 1.39624 6.83856 -2569.6 -2568.36 39.0752 3.70332 4.78157 2.91809
11 2 0.806116 1.39624 9.11708 -2578.7 -2579.24 -16.893 3.72793 4.46851 3.12217
12 2 4.03059 1.39623 11.3956 -2566.39 -2549.55 -3.68955 11.1103 13.4912 9.67081
1343 2 15.3127 20.9437 22.7839 -3196.64 -3024.16 3444.48 -2.46899 900.515 0.934339
1645 2 19.3469 11.1699 13.674 -2588.84 -2629.87 -78.5815 53.9898 29.8865 60.9746
1639 2 19.347 11.1699 6.83847 -2558.21 -2563.74 107.345 18.1554 5.12886 34.9456
16 2 2.41834 1.39623 13.6741 -2555.69 -2544.32 0.712411 12.6321 11.5902 10.2868
17 2 0.80609 1.39622 15.9527 -2550.76 -2543.39 -5.42842 14.2417 8.49378 10.2282
18 2 4.03056 1.3962 18.2312 -2542.63 -2498.46 24.2917 24.9892 10.108 14.0284
1342 2 16.9249 20.9437 20.5028 -688.493 -1186.11 10610.3 -1.93166 3211.8 1.80366
1621 2 19.3469 8.3774 13.6741 -2607.1 -2554.44 -62.8804 32.415 21.1303 45.0416
1615 2 19.347 8.37745 6.83852 -2568.93 -2558.75 53.2219 13.5397 5.90142 18.5072
22 2 2.41833 1.3962 20.5097 -2554.95 -2519.32 81.4366 22.0431 3.65651 9.63123
23 2 0.8061 1.39621 22.7883 -2413.87 -2374.7 3050.16 16.5542 1.26518 8.08453
24 2 4.03062 1.3962 25.0698 1749.69 1757.92 -436.278 0.161224 -0.0186119 0.383583
25 2 0 2.7925 0 2480.76 2480.77 -619.7 -0.00314767 0.00235856 -0.00985688
26 2 3.22449 2.79249 2.28147 -2434.11 -2434.27 3081.16 1.97513 1.71353 1.48472
27 2 1.61225 2.79249 4.56006 -2579.59 -2580.32 121.483 1.92089 1.77983 1.34447
28 2 2.41837 4.18874 0 2480.76 2480.89 -619.421 0.0206102 0.0739215 0.0554024
29 2 0.806124 4.18874 2.28147 -2436.97 -2437.43 3076.05 0.419983 0.30317 0.171607
30 2 4.03061 4.18874 4.56006 -2575.18 -2574.88 129.88 5.69219 4.63524 4.31587
31 2 -2.11349e-06 2.79249 6.83856 -2574.68 -2576.06 31.8709 1.68469 1.5571 1.36739
32 2 3.22448 2.79248 9.11707 -2573.67 -2570.43 -8.00783 9.60956 8.84076 7.87938
33 2 1.61223 2.79248 11.3956 -2567.88 -2568.2 -8.89117 9.85182 7.8855 8.40199
34 2 2.41836 4.18874 6.83855 -2569.38 -2570.81 39.2778 5.45923 4.36091 3.98882
35 2 0.806117 4.18874 9.11708 -2578.54 -2581.48 -16.4301 4.82878 3.65942 4.16474
36 2 4.03059 4.18871 11.3956 -2566.57 -2560.43 -1.30017 19.2113 13.8012 16.1152
1341 2 16.1076 19.5424 25.0624 7886.02 5089.61 -951.71 3668.19 931.568 86.833
38 2 3.22444 2.79244 15.9527 -2546.54 -2528 -3.68749 28.7573 14.5998 19.9704
39 2 1.61219 2.79244 18.2312 -2536.42 -2522.01 27.8758 29.6632 9.37741 16.7911
40 2 2.41833 4.18871 13.6741 -2556.7 -2556.79 1.86055 20.3307 12.0806 16.2842
41 2 0.806083 4.1887 15.9527 -2553.4 -2556.06 -6.56565 22.8687 10.8057 16.1296
42 2 4.03053 4.18864 18.2312 -2526.44 -2493.52 29.3381 51.8995 17.4685 29.062
1340 2 17.7277 19.5451 22.7745 -4972.54 157.82 29391.5 -1381.31 8339.19 10414
44 2 3.22446 2.79242 22.7883 -2413.42 -2359.88 3044.97 23.5822 0.770562 9.92234
45 2 1.61224 2.79242 25.0698 1749.8 1758.97 -436.211 1.68117 -0.0531456 0.737484
46 2 2.41829 4.18865 20.5097 -2542.18 -2510.76 78.6518 44.284 7.63728 20.1261
47 2 0.80607 4.18865 22.7883 -2407.82 -2359.8 3045.64 30.4543 2.80082 15.4605
48 2 4.03061 4.18863 25.0698 1749.62 1760.54 -436.485 1.42794 -0.120222 0.730547
49 2 0 5.58499 0 2480.76 2480.76 -619.721 7.42085e-05 -0.0095545 -0.0134821
50 2 3.22449 5.58499 2.28147 -2433.45 -2434.59 3081.28 2.35383 1.68073 1.45687
51 2 1.61225 5.58499 4.56006 -2578.9 -2580.52 121.774 1.95998 1.46973 1.31173
52 2 2.41837 6.98124 0 2480.73 2480.87 -619.468 0.0130758 0.0519203 0.0217411
53 2 0.806124 6.98124 2.28147 -2436.57 -2437.04 3076.13 0.148359 0.0572561 0.0842348
54 2 4.03061 6.98123 4.56006 -2573.88 -2576.46 130.255 5.9855 4.45046 3.85561
55 2 -1.33566e-06 5.58499 6.83856 -2573.59 -2575.47 32.7573 1.37332 1.01649 1.53603
56 2 3.22448 5.58498 9.11707 -2574.77 -2577.28 -8.51471 10.9447 7.6864 8.3784
57 2 1.61223 5.58497 11.3956 -2571.03 -2576.18 -10.3179 10.0817 6.66406 8.63891
58 2 2.41837 6.98123 6.83855 -2568.45 -2572.42 39.3435 4.77887 3.49617 3.3911
59 2 0.806118 6.98123 9.11708 -2579.36 -2583.27 -17.3893 3.59663 2.96827 3.4603
60 2 4.03059 6.9812 11.3956 -2566.67 -2572.14 0.435444 22.0206 13.6716 17.4631
1339 2 14.5086 19.5468 20.5065 -2317.89 -2735.09 1290.56 721.145 958.358 2.52877
62 2 3.22443 5.58492 15.9527 -2542.13 -2539.92 -0.589525 41.5766 19.8681 27.9888
63 2 1.61217 5.58491 18.2312 -2532.77 -2528.48 25.3506 42.257 15.0571 23.815
64 2 2.41834 6.9812 13.6741 -2561.93 -2571.72 -0.0515593 22.7771 13.3198 16.986
65 2 0.806078 6.9812 15.9527 -2561.16 -2569.31 -11.488 25.8642 14.6771 16.9217
66 2 4.0305 6.9811 18.2312 -2500.44 -2489.12 36.6811 72.366 27.4526 43.8063
1338 2 18.5417 20.9437 18.2344 -2829.08 -2563.44 -4290.44 0.136818 -3818.9 0.459855
68 2 3.22442 5.58485 22.7883 -2389.81 -2334 3043.59 40.931 2.23435 16.9561
69 2 1.61221 5.58485 25.0698 1751 1762.01 -436.076 2.84396 0.0371879 0.848483
70 2 2.41826 6.9811 20.5097 -2512.09 -2495.4 78.3447 55.0633 13.4233 30.0812
71 2 0.806042 6.98108 22.7884 -2388.53 -2337.81 3044.16 35.2676 7.43594 18.2331
72 2 4.03058 6.98105 25.0698 1752.07 1764.71 -436.567 3.97583 0.0605871 1.02071
73 2 0 8.37749 0 2480.79 2480.75 -619.647 0.0190935 -0.0276573 0.00268107
74 2 3.22449 8.37749 2.28147 -2432.76 -2434.45 3080.67 1.68193 1.30519 0.657805
75 2 1.61225 8.37749 4.56006 -2577.92 -2579.5 121.948 0.761571 0.86306 0.726688
76 2 2.41837 9.77373 0 2480.75 2480.85 -619.432 0.0253357 0.0266199 0.0116029
77 2 0.806124 9.77373 2.28147 -2435.1 -2435.6 3077.29 -0.395007 -0.0859898 0.353483
78 2 4.03061 9.77373 4.56006 -2572.81 -2577.25 128.345 3.74668 2.91345 1.61926
1337 2 15.3158 20.9437 15.9504 -2502.85 -2409.35 2134.71 -0.963354 493.038 -0.733807
80 2 3.22448 8.37747 9.11707 -2576.97 -2583.62 -12.1893 8.22607 5.48921 5.59041
81 2 1.61223 8.37747 11.3956 -2579.89 -2585.13 -17.9138 7.02535 6.06126 4.98649
82 2 2.41837 9.77373 6.83856 -2568.91 -2572.86 36.7181 1.5332 1.98443 1.28972
83 2 0.806121 9.77373 9.11708 -2584.57 -2585.32 -23.9056 0.903986 3.55925 0.912344
84 2 4.0306 9.77371 11.3956 -2576.09 -2584.06 -7.4587 15.7951 11.1245 10.006
85 2 -1.95084e-05 8.37747 13.6742 -2582.07 -2584.88 -16.6653 8.57672 9.01581 4.86127
86 2 3.22442 8.37741 15.9527 -2539.27 -2555.09 2.31717 43.1987 24.0948 32.0009
87 2 1.61216 8.37739 18.2312 -2520.38 -2531.69 24.0736 36.7922 18.8556 28.7231
88 2 2.41835 9.7737 13.6741 -2577.52 -2585.21 -9.44624 10.4729 10.2032 9.08462
89 2 0.806089 9.7737 15.9527 -2570.05 -2578.09 -20.7118 5.04313 10.4042 11.048
90 2 4.0305 9.77356 18.2312 -2479.8 -2505 41.9524 66.1324 36.2354 52.2813
1336 2 16.9287 20.9437 13.6737 -2658.72 -2664.26 241.963 0.28536 -518.64 1.14938
92 2 3.22437 8.37726 22.7883 -2333.49 -2300.14 3048.14 65.3996 8.75308 25.049
93 2 1.61218 8.37726 25.0699 1756.97 1766.43 -435.75 3.45549 0.245898 0.911113
94 2 2.41825 9.77354 20.5097 -2475.73 -2489.85 81.6912 48.9936 23.3586 37.8041
95 2 0.806028 9.77351 22.7884 -2340.55 -2315.23 3047.35 25.1668 14.3706 18.6693
96 2 4.0305 9.77345 25.0698 1763.15 1769.76 -436.356 9.34153 0.236392 1.75937
97 2 0 11.17 0 2480.88 2480.76 -619.367 0.078629 -0.0712413 0.05786
98 2 3.22449 11.17 2.28147 -2431.01 -2433.43 3080.94 0.282395 0.570893 0.254695
99 2 1.61225 11.17 4.56006 -2575.83 -2577.64 122.932 -0.980821 0.530424 0.836319
100 2 2.41837 12.5662 0 2480.88 2480.85 -619.075 0.0836682 -0.0622926 0.0639381
101 2 0.806126 12.5662 2.28147 -2431.31 -2433.65 3081.46 -1.53937 -0.715521 1.15516
102 2 4.03062 12.5662 4.56006 -2571.57 -2577.26 125.815 0.188131 0.37916 -0.00738398
1335 2 16.1214 19.5473 18.2276 -2466 -2082.14 4105.16 -25.751 941.741 774.902
104 2 3.22449 11.17 9.11707 -2582.5 -2588.48 -19.4046 3.42174 3.49311 2.02147
105 2 1.61224 11.17 11.3956 -2588.98 -2591.05 -24.6271 -0.667176 4.16642 1.30915
106 2 2.41837 12.5662 6.83855 -2570.36 -2573.39 34.2851 -2.35807 0.8844 0.952551
107 2 0.806124 12.5662 9.11708 -2586.85 -2587.33 -24.9006 -4.51244 2.17698 1.69881
108 2 4.03062 12.5662 11.3956 -2577.54 -2593.46 -11.5788 4.26497 2.98342 4.99571
109 2 -9.23631e-06 11.17 13.6742 -2584.56 -2589.77 -20.7385 -6.40682 2.68493 1.48617
110 2 3.22446 11.1699 15.9527 -2548.91 -2572.07 -8.55191 15.2106 17.4663 22.2746
111 2 1.61221 11.1699 18.2312 -2520.44 -2537.3 11.7533 0.755251 15.9707 24.2576
112 2 2.41838 12.5662 13.6741 -2578.37 -2592.94 -12.6032 -6.60008 0.747753 6.2483
113 2 0.806146 12.5662 15.9527 -2561.54 -2582.06 -26.0477 -21.3014 -1.53598 11.3479
114 2 4.03058 12.5661 18.2312 -2459.66 -2538.09 42.8879 9.71479 20.1844 42.1375
115 2 -3.15167e-05 11.1698 20.5098 -2525.1 -2511.15 61.4671 -10.1694 18.4554 24.1199
116 2 3.22434 11.1697 22.7884 -2220.31 -2289.55 3060.71 66.0589 22.4759 36.948
117 2 1.61215 11.1697 25.0699 1775.57 1768.04 -435.577 2.84757 0.61 0.801785
118 2 2.41835 12.566 20.5097 -2424.59 -2508.02 89.9867 -18.1801 16.8282 38.7386
119 2 0.806119 12.5659 22.7884 -2228.7 -2317.02 3052.53 -48.892 15.0778 25.2407
120 2 4.03035 12.5659 25.0698 1787.46 1769.59 -436.722 19.2266 1.22362 2.66012
121 2 0 13.9625 0 2481.25 2480.82 -618.321 0.2063 -0.373395 0.228976
122 2 3.2245 13.9625 2.28147 -2426.62 -2432.01 3085.63 -1.2183 -0.701154 0.990198
123 2 1.61225 13.9625 4.56005 -2570.85 -2576.87 129.568 -2.58855 -0.561421 2.95486
124 2 2.41837 15.3587 0 2481.31 2480.93 -617.925 0.19295 -0.397383 0.211457
125 2 0.806132 15.3587 2.28146 -2424.08 -2432.78 3096.04 -2.27037 -4.14517 3.19364
126 2 4.03062 15.3587 4.56005 -2564.14 -2577.7 132.613 -3.78779 -5.78615 1.12617
127 2 8.62239e-06 13.9625 6.83855 -2568.24 -2574.91 39.8971 -3.56391 -0.874744 5.75991
128 2 3.2245 13.9625 9.11707 -2582.41 -2592.87 -21.2421 -7.70197 -6.08847 0.404095
129 2 1.61227 13.9625 11.3956 -2584.45 -2595.08 -21.2153 -14.3823 -7.67374 3.23516
130 2 2.41838 15.3587 6.83854 -2560.36 -2575.88 47.9391 -6.91378 -7.3507 4.78872
131 2 0.806149 15.3587 9.11705 -2569.96 -2590.58 -1.724 -10.0072 -10.562 10.0182
132 2 4.03066 15.3587 11.3956 -2556.45 -2599.87 -3.17597 -15.2489 -23.7648 1.9928
133 2 4.16894e-05 13.9625 13.6741 -2569.72 -2591.89 -15.8377 -27.418 -15.8815 8.06833
134 2 3.22455 13.9624 15.9527 -2511.3 -2587 -0.913315 -30.6764 -15.782 17.0439
135 2 1.61236 13.9624 18.2312 -2448.56 -2551.52 25.206 -61.6139 -18.2936 25.8439
136 2 2.41846 15.3587 13.6741 -2525.28 -2598.72 13.4056 -38.5611 -42.7033 7.74672
137 2 0.806311 15.3587 15.9526 -2473.2 -2590.08 7.02456 -71.924 -60.7888 18.7122
138 2 4.03073 15.3586 18.2312 -2420.23 -2571.68 36.7659 -40.0174 -18.5473 28.4329
139 2 0.000170313 13.9623 20.5097 -2408.65 -2521.04 79.6889 -99.9584 -11.1455 32.5042
140 2 3.22438 13.9622 22.7883 -2122.28 -2333.46 3063.91 21.4562 29.7859 50.1294
141 2 1.61214 13.9621 25.0699 1799.27 1762.97 -435.94 1.078 1.05247 1.21235
142 2 2.41852 15.3585 20.5097 -2333.98 -2549.06 97.5731 -76.9759 -16.0358 35.8148
143 2 0.806296 15.3584 22.7883 -2057.66 -2362.88 3060.28 -110.6 -6.30808 32.9876
144 2 4.03021 15.3584 25.0698 1816.16 1760.62 -435.988 19.5287 3.50519 3.14471
145 2 0 16.755 0 2482.06 2481.06 -616.068 0.317905 -1.02886 0.452738
146 2 3.2245 16.755 2.28146 -2417.59 -2431.36 3101.12 -2.51954 -5.88217 2.12369
147 2 1.61227 16.755 4.56004 -2558.64 -2578.06 151.951 -4.18123 -9.35878 5.5593
148 2 2.41837 18.1512 0 2482.1 2481.13 -615.883 0.201311 -1.1268 0.262809
149 2 0.806142 18.1512 2.28145 -2414.51 -2433.18 3122.15 -2.05219 -11.8238 3.37585
150 2 4.03063 18.1512 4.56004 -2552.11 -2579.56 148.848 -3.96524 -15.0386 2.56294
151 2 3.40548e-05 16.755 6.83851 -2550.51 -2577.18 73.8005 -5.73649 -15.2005 11.369
152 2 3.22453 16.755 9.11704 -2558.77 -2597.16 1.26052 -15.6216 -28.6546 4.44216
153 2 1.61233 16.755 11.3956 -2530.44 -2598.49 24.1409 -28.679 -48.0582 10.3221
154 2 2.41841 18.1512 6.83851 -2539.9 -2579.04 77.778 -7.08526 -23.664 6.54058
155 2 0.806198 18.1512 9.11699 -2528.87 -2593.07 51.0496 -13.6176 -42.7074 11.2217
156 2 4.03071 18.1512 11.3956 -2522.54 -2602.99 14.3378 -18.659 -58.1007 2.70021
157 2 0.00018075 16.755 13.674 -2477.27 -2596.72 45.0987 -55.3823 -80.0684 18.9138
158 2 3.2247 16.7549 15.9526 -2427.9 -2601.84 24.5644 -50.2014 -73.682 17.3721
159 2 1.61259 16.7549 18.2311 -2302.35 -2578.02 61.4129 -94.3705 -87.084 28.0774
160 2 2.41857 18.1512 13.674 -2447.72 -2600.8 52.8555 -39.6912 -94.9557 8.55584
161 2 0.806508 18.1512 15.9525 -2332.16 -2602.22 63.3398 -79.0925 -142.89 15.7822
162 2 4.0309 18.1511 18.2311 -2342.23 -2606 46.5006 -34.898 -69.3916 20.2674
163 2 0.000488844 16.7548 20.5096 -2170.17 -2561.61 119.987 -157.96 -85.3104 35.5537
164 2 3.22449 16.7547 22.7883 -2062.88 -2402.14 3056.12 -22.1731 22.8628 43.7957
165 2 1.61216 16.7547 25.0698 1819.25 1754.59 -437.075 0.263947 1.36863 1.86346
166 2 2.41872 18.1511 20.5096 -2224.56 -2596.67 108.52 -58.8978 -56.1161 27.6308
167 2 0.806499 18.151 22.7882 -1911.4 -2424.82 3060.86 -79.6619 -34.6827 29.3917
168 2 4.03013 18.151 25.0698 1834.46 1751.42 -436.749 9.65921 5.56919 2.11289
169 2 0 19.5475 0 2482.85 2481.33 -613.87 0.15023 -1.67974 0.208866
170 2 3.22451 19.5475 2.28145 -2409.7 -2431.7 3118.07 -1.18166 -11.524 1.43871
171 2 1.61228 19.5475 4.56002 -2547.48 -2579.57 175.697 -2.28316 -18.6529 3.02726
172 2 2.41837 20.9437 0 2482.46 2481.23 -614.899 0.00120943 -1.43761 0.00106273
173 2 0.806146 20.9437 2.28145 -2410.2 -2433.63 3135.54 -0.0337899 -15.51 0.016693
174 2 4.03064 20.9437 4.56003 -2545.97 -2580.77 158.38 -0.0267682 -20.0467 0.0172294
175 2 6.13183e-05 19.5475 6.83847 -2527.77 -2578.28 115.38 -4.64198 -35.4033 5.4574
176 2 3.22457 19.5475 9.117 -2534.04 -2600.41 27.6483 -7.37653 -46.916 3.98002
177 2 1.61239 19.5475 11.3955 -2476.95 -2600.53 69.3234 -15.2699 -81.0582 6.48014
178 2 2.41842 20.9437 6.83849 -2530.92 -2580.43 92.1456 -0.0699715 -30.4527 0.0396546
179 2 0.806222 20.9437 9.11696 -2507.73 -2594.04 77.0462 -0.14734 -57.9922 0.0724258
180 2 4.03074 20.9437 11.3955 -2503.13 -2603.96 26.5672 -0.137178 -74.9478 0.0273313
181 2 0.000306123 19.5475 13.6739 -2365.11 -2606.71 115.897 -34.2641 -149.592 9.59435
182 2 3.22482 19.5475 15.9526 -2371.03 -2607.56 39.778 -24.4935 -123.478 8.61492
183 2 1.61278 19.5474 18.231 -2211.19 -2592.68 78.2178 -45.3938 -137.256 13.2117
184 2 2.41862 20.9437 13.674 -2413.62 -2600.28 71.3199 -0.260677 -114.614 0.0692169
185 2 0.806594 20.9437 15.9525 -2268.1 -2608.23 87.1641 -0.401211 -175.284 0.13605
186 2 4.03099 20.9437 18.2311 -2295.91 -2624.2 56.2367 -0.375583 -97.9154 0.156486
187 2 0.000728297 19.5474 20.5095 -2000.58 -2600.82 132.221 -78.9305 -143.184 15.6579
188 2 3.22457 19.5474 22.7882 -2004.2 -2453.43 3060.89 -17.5596 6.25306 16.859
189 2 1.61219 19.5474 25.0697 1834.85 1747.89 -436.176 0.139136 1.46056 1.12996
190 2 2.41882 20.9437 20.5096 -2172.33 -2618.42 116.011 -0.272081 -75.6026 0.284453
191 2 0.806601 20.9437 22.7881 -1857.1 -2453.18 3058.77 -0.267345 -47.1948 0.332962
192 2 4.03009 20.9437 25.0698 1839.55 1748.14 -438.05 -0.0248048 6.10847 -0.00280504
385 2 4.83674 0 0 2480.84 2481.11 -618.756 0.0407363 0.265674 0.105075
1597 2 19.3469 5.58494 13.6742 -2599.16 -2550.27 -50.4712 12.4803 10.5556 12.8414
1573 2 19.347 2.79247 13.6742 -2593.86 -2562.92 -35.3199 4.79263 4.33156 6.29911
388 2 7.25512 1.39625 0 2480.99 2481.41 -617.792 0.174488 0.498178 0.421942
389 2 5.64286 1.39624 2.28147 -2432.01 -2428.48 3088.99 2.97063 3.7849 2.81231
390 2 8.86735 1.39624 4.56004 -2578.55 -2562.06 139.94 4.20707 6.63744 5.30848
1334 2 17.7351 19.5479 15.9529 -2745.47 -2775.54 -752.48 -203.862 -1397.52 -463.058
1333 2 14.51 19.5474 13.6729 -2591.59 -2535.11 1126.38 10.5753 265.013 120.293
1332 2 18.541 20.9437 11.3957 -2550.95 -2705.08 -528.372 0.535031 -326.373 1.9281
394 2 7.2551 1.39623 6.83854 -2570.63 -2549.16 53.4908 6.55771 10.951 7.52244
395 2 5.64284 1.39623 9.11706 -2575.49 -2554.28 -1.79357 9.09731 13.432 8.85875
396 2 8.86733 1.39621 11.3956 -2586.9 -2529.79 -5.27912 11.0463 15.6029 15.3261
1331 2 15.3163 20.9437 9.11668 -2608.74 -2612.57 305.702 0.498815 -59.2819 1.11862
1330 2 16.9286 20.9437 6.83836 -2578.18 -2599.29 150.706 0.358736 -65.0206 0.956584
1329 2 16.1225 19.5475 11.3951 -2635.64 -2661.55 361.133 -24.1593 -178.485 2.74102
400 2 7.25506 1.3962 13.6741 -2572.59 -2507.38 0.130016 20.3202 20.4152 19.4392
401 2 5.64281 1.3962 15.9527 -2558.54 -2501.52 -8.81195 25.3692 17.4714 18.1939
402 2 8.86731 1.39617 18.2312 -2576.1 -2461.82 13.9419 22.6449 11.5779 15.9657
1328 2 17.7348 19.5475 9.11689 -2587.14 -2678.1 -63.6884 -11.528 -156.417 -24.3303
1327 2 14.5102 19.5475 6.83828 -2574.7 -2569.98 277.655 1.115 -5.94849 9.13667
1326 2 18.5409 20.9437 4.55997 -2577.15 -2580.62 209.717 0.203966 -23.4079 0.624746
406 2 7.25507 1.39618 20.5097 -2579.82 -2484.92 71.232 21.9021 7.49877 10.3702
407 2 5.64285 1.39619 22.7883 -2428.48 -2361.34 3043.73 11.7111 2.25244 4.44318
408 2 8.86739 1.3962 25.0698 1745.98 1756.46 -436.318 -1.66281 0.145171 -0.0532402
409 2 4.83674 2.7925 0 2480.84 2481.17 -618.611 0.110519 0.298242 0.290575
410 2 8.06123 2.79249 2.28146 -2431.89 -2423.45 3099.38 5.18962 5.48164 6.08255
411 2 6.44898 2.79248 4.56005 -2574.78 -2566.08 139.088 7.34282 7.675 7.36599
412 2 7.25512 4.18874 0 2481.05 2481.63 -617.182 0.30798 0.634466 0.758165
413 2 5.64286 4.18874 2.28147 -2430.77 -2428.75 3091.89 5.22797 4.36643 4.65728
414 2 8.86735 4.18872 4.56004 -2578.56 -2563.88 146.596 8.00172 7.31037 10.6971
415 2 4.83673 2.79248 6.83855 -2566.81 -2559.95 48.8017 8.92142 8.98401 7.77229
416 2 8.06121 2.79246 9.11704 -2584.05 -2548.45 3.52128 12.6703 15.1317 16.8939
417 2 6.44895 2.79245 11.3956 -2572.62 -2536.52 3.57781 20.8567 19.6858 21.0851
418 2 7.2551 4.18872 6.83853 -2570.95 -2553.36 58.9002 12.9189 12.6264 14.635
419 2 5.64284 4.18871 9.11705 -2575.81 -2562.17 1.86284 17.1907 14.7363 15.9882
420 2 8.86732 4.18867 11.3956 -2578.46 -2522.55 13.2606 25.4928 21.5412 33.8354
421 2 4.83669 2.79244 13.6741 -2556.7 -2529 5.65243 26.4231 18.8747 21.7107
422 2 8.06116 2.79239 15.9526 -2567.35 -2469.92 -4.75623 40.0226 23.6137 33.9111
423 2 6.44891 2.79239 18.2312 -2546.55 -2462.81 23.9513 45.4747 17.9254 27.7095
424 2 7.25505 4.18865 13.6741 -2559.04 -2500.01 18.806 42.8591 29.7025 40.8504
425 2 5.64278 4.18864 15.9526 -2541.68 -2495.93 4.84447 52.2231 26.9238 37.7254
426 2 8.86726 4.18856 18.2312 -2558.85 -2419.13 20.5228 54.8256 20.0423 39.409
427 2 4.83668 2.79241 20.5097 -2554.85 -2491.38 76.2376 38.5247 7.50905 16.8931
428 2 8.06123 2.7924 22.7883 -2450.31 -2340.51 3038.87 8.90578 1.92391 4.49689
429 2 6.44901 2.79242 25.0698 1747.7 1758.75 -436.626 -0.388027 0.0242172 0.356802
430 2 7.25503 4.18858 20.5097 -2561.81 -2441.96 72.5795 54.0899 13.082 26.8362
431 2 5.64282 4.18862 22.7883 -2416.05 -2328.34 3041.25 32.9124 2.32605 12.4966
432 2 8.86741 4.18864 25.0698 1743.6 1759.7 -436.413 -1.69074 -0.179304 0.0794693
433 2 4.83674 5.58499 0 2480.82 2481.25 -618.443 0.12712 0.344307 0.336139
434 2 8.06123 5.58498 2.28146 -2430.77 -2422.86 3107.75 7.58018 7.0041 8.83391
435 2 6.44898 5.58498 4.56004 -2574.03 -2568.21 142.905 10.3821 8.92669 9.66915
436 2 7.25512 6.98124 0 2481.11 2481.94 -616.413 0.367607 0.852041 0.932029
437 2 5.64286 6.98123 2.28147 -2428.94 -2429.12 3094.49 6.27758 5.0427 4.87273
438 2 8.86735 6.98121 4.56002 -2578.01 -2564.03 157.271 11.1518 9.44705 14.6676
439 2 4.83673 5.58498 6.83854 -2567.05 -2565.07 49.5385 11.5752 9.13841 9.01515
440 2 8.06121 5.58493 9.11703 -2581.51 -2550.37 16.8537 21.708 19.4687 27.3776
441 2 6.44894 5.58492 11.3956 -2567.47 -2542.44 15.422 32.8219 24.8415 31.7782
442 2 7.25509 6.98121 6.83852 -2569.9 -2556.55 66.909 17.4747 15.9061 18.5499
443 2 5.64284 6.9812 9.11705 -2574.2 -2569.92 6.53085 21.5083 16.3051 18.5398
444 2 8.8673 6.98113 11.3955 -2568.05 -2518.27 39.8013 41.1154 31.0961 51.6635
445 2 4.83668 5.58492 13.6741 -2550.5 -2539.16 14.045 38.993 23.5485 31.1242
446 2 8.06112 5.5848 15.9526 -2542.26 -2445.8 17.6477 72.6879 39.4249 62.0958
447 2 6.44886 5.58481 18.2312 -2515.27 -2434.37 36.6507 82.6247 32.6614 51.2981
448 2 7.25503 6.9811 13.6741 -2542.04 -2499.77 42.8701 64.2393 42.8724 59.8861
449 2 5.64276 6.9811 15.9526 -2520.41 -2496.91 21.3014 76.5354 40.2794 55.663
450 2 8.86718 6.98093 18.2311 -2516.01 -2361.8 43.2057 104.253 40.3207 77.7624
451 2 4.83663 5.58483 20.5097 -2522.99 -2462.43 79.4812 68.3978 15.0928 31.9353
452 2 8.06118 5.58479 22.7883 -2438.05 -2278.42 3038.69 36.0019 2.69768 13.0004
453 2 6.44899 5.58484 25.0698 1747.32 1763.46 -436.729 1.96971 0.13072 0.662463
454 2 7.25495 6.98095 20.5096 -2510.28 -2381.33 82.8325 102.83 26.8649 52.0258
455 2 5.64276 6.98101 22.7883 -2376.14 -2276.22 3041.32 68.9109 7.99232 22.8309
456 2 8.86739 6.98104 25.0698 1741.46 1766.74 -436.062 0.522797 -0.30301 0.204644
457 2 4.83674 8.37749 0 2480.77 2481.27 -618.443 0.0913653 0.34487 0.227014
458 2 8.06123 8.37747 2.28145 -2428.88 -2422.25 3117.16 9.30681 9.28123 10.3989
459 2 6.44898 8.37747 4.56004 -2572.2 -2570.44 146.084 11.627 10.3529 9.56219
460 2 7.25512 9.77373 0 2481.09 2482.16 -615.934 0.328695 1.04714 0.845766
461 2 5.64286 9.77373 2.28147 -2427.46 -2429.65 3093.94 5.54257 4.88504 3.11047
462 2 8.86734 9.7737 4.56001 -2576.24 -2563.71 169.242 13.5426 12.9922 16.5095
463 2 4.83673 8.37747 6.83854 -2566.28 -2569.87 48.5835 10.9141 8.23454 7.17458
464 2 8.0612 8.37742 9.11701 -2575.86 -2552.23 35.3925 29.6834 26.4376 34.9073
465 2 6.44894 8.37741 11.3956 -2560.81 -2552.03 29.0444 41.0358 31.2568 37.3572
466 2 7.25509 9.7737 6.83851 -2567.93 -2559.28 72.6711 18.8906 19.5968 17.472
467 2 5.64284 9.7737 9.11705 -2575.03 -2577.43 4.52361 19.7367 16.2871 13.5966
468 2 8.86729 9.7736 11.3955 -2561.36 -2524.5 68.1682 47.7211 40.9352 61.0443
469 2 4.83668 8.37741 13.6741 -2547.47 -2555.37 21.4542 45.1861 28.393 35.0111
470 2 8.06107 8.37722 15.9525 -2506.19 -2439.87 52.3186 108.651 62.3409 97.7901
471 2 6.44881 8.37722 18.2311 -2463.55 -2424.19 61.3729 122.349 54.1731 82.897
472 2 7.25503 9.77358 13.674 -2532.75 -2518.79 62.1779 67.8825 53.0253 66.1877
473 2 5.64276 9.77357 15.9526 -2509.32 -2523.09 31.6298 74.6652 49.0161 61.4572
474 2 8.86709 9.77328 18.231 -2451.5 -2340.85 97.609 163.236 82.7842 139.563
475 2 4.83657 8.37724 20.5097 -2461.41 -2437.92 91.8397 104.534 29.6477 53.852
476 2 8.06108 8.37712 22.7883 -2384.8 -2185.73 3038.75 101.595 10.8984 31.1283
477 2 6.44893 8.37723 25.0698 1749.74 1770.43 -437.081 6.85773 0.212391 1.47276
478 2 7.25484 9.77331 20.5096 -2405.7 -2344.81 112.769 176.197 59.1213 97.6381
479 2 5.64265 9.77338 22.7883 -2265.62 -2226.29 3052.65 134.995 21.8161 45.0136
480 2 8.86729 9.77338 25.0697 1741.3 1779.46 -437.701 9.4339 -0.488406 1.81498
481 2 4.83674 11.17 0 2480.73 2481.2 -618.543 0.0561485 0.264279 0.0850989
482 2 8.06122 11.17 2.28145 -2426.82 -2422.48 3123.05 9.6497 11.5211 9.63385
483 2 6.44898 11.17 4.56004 -2569.97 -2572.63 145.379 10.465 10.6548 6.75554
484 2 7.25512 12.5662 0 2481 2482.19 -615.912 0.227289 1.08795 0.550811
485 2 5.64286 12.5662 2.28147 -2425.86 -2429.92 3091.03 3.17323 3.27365 0.774566
486 2 8.86734 12.5662 4.56001 -2571.76 -2564.43 180.061 14.9225 17.4582 16.1999
487 2 4.83673 11.17 6.83855 -2566.17 -2573.61 43.6825 7.59827 5.90544 3.41618
488 2 8.0612 11.1699 9.11699 -2571.08 -2555.02 47.2991 30.5129 32.3878 31.361
489 2 6.44896 11.1699 11.3956 -2559.95 -2564.31 30.2481 34.2979 30.9799 27.3034
490 2 7.25509 12.5662 6.83851 -2561.81 -2562.04 76.8838 17.466 21.7787 14.3163
491 2 5.64285 12.5662 9.11706 -2570.7 -2583.85 2.45135 13.4383 11.8903 8.3671
492 2 8.86731 12.5661 11.3955 -2551.97 -2536.71 85.1434 50.6311 48.4037 55.3778
493 2 4.83671 11.1699 13.6741 -2555.66 -2575.45 14.0278 27.7587 22.033 22.1751
494 2 8.06108 11.1697 15.9525 -2492.02 -2476.14 85.0527 105.235 81.2955 109.075
495 2 6.4488 11.1697 18.2311 -2428.89 -2465.58 84.7597 110.852 71.5733 95.8048
496 2 7.25506 12.5661 13.674 -2529.26 -2547.51 62.3749 57.2241 50.4644 50.6975
497 2 5.64282 12.5661 15.9526 -2505.79 -2561.31 27.8955 40.7673 35.3669 43.8096
498 2 8.86709 12.5657 18.2309 -2422.2 -2419.51 155.36 162.649 134.441 170.77
499 2 4.83655 11.1697 20.5097 -2387.55 -2458.8 108.668 96.429 47.0893 70.6018
500 2 8.06086 11.1694 22.7882 -2215.37 -2100.99 3052.46 249.05 49.8621 79.8821
501 2 6.44876 11.1696 25.0698 1763.89 1777.87 -437.921 22.6969 0.639594 3.27583
502 2 7.25478 12.5657 20.5095 -2321.12 -2412.97 141.019 189.542 111.828 129.963
503 2 5.64253 12.5658 22.7883 -2110.23 -2251.82 3059.03 181.495 57.2621 74.3573
504 2 8.86696 12.5656 25.0696 1757.46 1795.95 -439.699 39.1395 2.06253 4.85347
505 2 4.83674 13.9625 0 2480.84 2481.12 -618.382 0.0778387 0.074899 0.0406072
506 2 8.06122 13.9625 2.28145 -2425.01 -2423.19 3122.7 7.29764 11.7329 6.09762
507 2 6.44898 13.9625 4.56005 -2567.18 -2573.96 140.676 5.31179 6.6321 2.12312
508 2 7.25512 15.3587 0 2481.03 2482.1 -615.933 0.151195 0.903044 0.280062
509 2 5.64286 15.3587 2.28147 -2421.26 -2429.72 3092.21 0.153156 -0.442945 -0.0288736
510 2 8.86734 15.3587 4.56001 -2565.57 -2565.89 183.607 11.8342 18.3197 11.1157
511 2 4.83674 13.9625 6.83855 -2564.23 -2576.33 38.6396 -0.921685 -2.60145 -0.456507
512 2 8.06121 13.9624 9.11699 -2564.37 -2561.97 50.8086 25.4858 33.8334 23.597
513 2 6.44898 13.9624 11.3956 -2557.59 -2577.78 23.2321 20.1209 20.86 15.918
514 2 7.25511 15.3587 6.83852 -2553.71 -2564.37 74.3841 10.6105 16.7575 7.54793
515 2 5.64288 15.3587 9.11706 -2561.76 -2588.94 -1.95136 1.78382 -3.1273 2.20186
516 2 8.86734 15.3586 11.3955 -2549.23 -2559.82 78.6988 31.9346 42.0174 33.8977
517 2 4.83676 13.9624 13.6741 -2546.61 -2592.28 11.0401 -0.997288 -1.92836 11.838
518 2 8.06116 13.9622 15.9525 -2487.75 -2542.72 87.0519 78.8691 74.6665 75.7936
519 2 6.44891 13.9622 18.2311 -2435.21 -2542.04 78.7565 58.5053 57.1647 66.2859
520 2 7.25514 15.3586 13.674 -2535.95 -2578.72 41.4539 26.4913 28.744 26.8953
521 2 5.64293 15.3586 15.9526 -2501.34 -2593.35 8.95437 0.0134938 0.00453796 23.1039
522 2 8.86721 15.3583 18.2309 -2443.82 -2569.41 143.527 109.884 138.069 104.572
523 2 4.83665 13.9622 20.5097 -2362.36 -2527.25 107.2 34.085 42.3963 62.8596
524 2 8.06058 13.9617 22.7881 -1971.18 -2164.83 3069.46 362.324 154.735 143.991
525 2 6.44841 13.9619 25.0698 1803.23 1775.07 -439.287 45.5524 4.43362 4.69868
526 2 7.25489 15.3583 20.5096 -2342.86 -2564.97 121.045 104.069 115.901 94.399
527 2 5.64252 15.3583 22.7883 -2045.05 -2368.92 3055.18 121.549 77.3137 82.7941
528 2 8.86622 15.3579 25.0696 1847.28 1795.46 -443.308 98.4408 16.0075 6.97948
529 2 4.83674 16.755 0 2481.27 2481.12 -617.45 0.127866 -0.406715 0.0973307
530 2 8.06123 16.755 2.28145 -2421.35 -2423.6 3120.97 3.30792 8.62434 2.47962
531 2 6.44899 16.755 4.56005 -2560.29 -2574.74 139.234 -0.132022 -2.03965 -0.142834
532 2 7.25512 18.1512 0 2481.28 2482.01 -615.543 0.0944744 0.46411 0.118696
533 2 5.64287 18.1512 2.28146 -2413.56 -2429.86 3100.49 -1.23236 -6.24993 0.278417
534 2 8.86735 18.1512 4.56001 -2558.35 -2566.55 181.025 5.35275 13.2701 4.34418
535 2 4.83676 16.755 6.83854 -2553.75 -2579.38 43.8588 -6.89567 -16.8835 0.324287
536 2 8.06124 16.7549 9.117 -2546.26 -2571.69 51.3719 17.8183 27.1101 15.8935
537 2 6.44903 16.7549 11.3956 -2539.78 -2591.07 17.5065 9.21682 -3.40322 8.29218
538 2 7.25512 18.1512 6.83853 -2542.64 -2565.35 69.4548 2.13961 2.34397 1.54898
539 2 5.64291 18.1512 9.11706 -2546.96 -2592.46 -3.27853 -5.71716 -27.9292 -0.482437
540 2 8.86738 18.1511 11.3955 -2523.54 -2587.62 83.7791 15.8702 37.5237 18.9469
541 2 4.83684 16.755 13.6741 -2510.48 -2605.89 17.9535 -15.2087 -44.6003 7.65768
542 2 8.06129 16.7548 15.9525 -2480.45 -2608.68 62.8252 30.071 52.6092 34.9823
543 2 6.44907 16.7548 18.2311 -2430.79 -2608.02 53.8874 6.35566 22.3714 27.7888
544 2 7.25521 18.1512 13.6741 -2508.62 -2608.74 36.9892 10.1765 0.0612898 13.9919
545 2 5.64306 18.1512 15.9526 -2456.26 -2622.27 8.92917 -9.68411 -51.1045 12.7862
546 2 8.86733 18.151 18.2309 -2471.19 -2684.4 84.5673 42.8594 116.51 36.2114
547 2 4.83681 16.7548 20.5097 -2347.5 -2594.69 92.5257 -18.3925 13.9124 36.807
548 2 8.06054 16.7544 22.7882 -1984.71 -2408.16 3030.42 226.503 209.361 141.273
549 2 6.44808 16.7545 25.0698 1842.14 1757.11 -440.243 42.0274 10.7163 4.40032
550 2 7.25502 18.151 20.5096 -2406.36 -2674.88 77.464 30.1524 97.1727 43.1498
551 2 5.64259 18.151 22.7883 -2083.15 -2467.93 3040.35 38.4736 78.5719 50.7367
552 2 8.86565 18.1506 25.0696 1921.44 1754.49 -445.718 71.4375 30.2938 6.16506
553 2 4.83674 19.5475 0 2481.79 2481.18 -616.259 0.0763769 -0.978286 0.0761421
554 2 8.06123 19.5475 2.28145 -2416.61 -2423.72 3121.81 0.601896 4.41662 0.54542
555 2 6.449 19.5475 4.56004 -2550.8 -2575.69 143.82 -1.20069 -11.5502 -0.113067
556 2 7.25512 20.9437 0 2481.47 2481.99 -615.198 0.00074484 0.16986 0.00132435
557 2 5.64287 20.9437 2.28146 -2409.01 -2430.09 3106.63 -0.00312906 -9.9202 0.00610041
558 2 8.86735 20.9437 4.56001 -2554.57 -2566.59 179.149 0.119883 9.71955 0.0990656
559 2 4.83678 19.5475 6.83852 -2539.74 -2582.72 56.4154 -3.89857 -30.611 1.14103
560 2 8.06126 19.5475 9.11701 -2531.85 -2578.42 45.559 6.05003 14.0371 5.19933
561 2 6.44908 19.5475 11.3956 -2522.1 -2599.01 8.76532 1.0377 -34.8524 1.58265
562 2 7.25513 20.9437 6.83853 -2535.75 -2565.58 68.141 0.0845349 -6.45824 0.066321
563 2 5.64293 20.9437 9.11705 -2536.23 -2594.07 -0.351905 -0.00875868 -42.1488 0.0287653