ITEM: TIMESTEP
200
ITEM: NUMBER OF ATOMS
3074
ITEM: BOX BOUNDS pp pp pp
0.0000000000000000e+00 3.8693948398131120e+01
0.0000000000000000e+00 4.4679925159782847e+01
0.0000000000000000e+00 6.0000000000000000e+01
ITEM: ATOMS id type xs ys zs
1 2 0 0 0
1693 2 0.500008 0.375008 0.227912
1675 2 0.499996 0.312522 0.341843
4 2 0.0625 0.03125 0
5 2 0.020833 0.03125 0.0380244
6 2 0.104166 0.0312498 0.0760004
1344 2 0.477881 0.468751 0.417219
1663 2 0.500001 0.3125 0.113976
1651 2 0.5 0.250014 0.341834
10 2 0.0624991 0.0312497 0.113976
11 2 0.0208323 0.0312497 0.151951
12 2 0.104165 0.0312492 0.189926
1343 2 0.39574 0.46875 0.379743
1645 2 0.499999 0.250001 0.227902
1639 2 0.5 0.249999 0.113976
16 2 0.0624979 0.0312491 0.227902
17 2 0.020831 0.0312491 0.265877
18 2 0.104164 0.0312482 0.303853
1342 2 0.437405 0.46875 0.341725
1621 2 0.499998 0.1875 0.227903
1615 2 0.499999 0.187499 0.113976
22 2 0.0624979 0.0312484 0.341828
23 2 0.0208315 0.0312486 0.379805
24 2 0.104167 0.0312484 0.41783
25 2 0 0.0625 0
26 2 0.083333 0.0624998 0.0380243
27 2 0.0416661 0.0624998 0.0760005
28 2 0.0625 0.09375 0
29 2 0.0208331 0.0937499 0.0380244
30 2 0.104166 0.0937496 0.0760004
31 2 -6.49494e-07 0.0624998 0.113976
32 2 0.0833321 0.0624993 0.151951
33 2 0.0416651 0.0624993 0.189926
34 2 0.0624992 0.0937495 0.113976
35 2 0.0208324 0.0937496 0.151951
36 2 0.104165 0.0937485 0.189926
1341 2 0.416283 0.437389 0.417721
38 2 0.0833306 0.062498 0.265877
39 2 0.0416639 0.062498 0.303853
40 2 0.0624978 0.0937484 0.227902
41 2 0.0208308 0.0937484 0.265877
42 2 0.104163 0.0937464 0.303852
1340 2 0.458154 0.43745 0.379591
44 2 0.0833319 0.0624973 0.379805
45 2 0.0416658 0.0624978 0.41783
46 2 0.0624969 0.0937466 0.341828
47 2 0.0208307 0.093747 0.379805
48 2 0.104167 0.0937465 0.417829
49 2 0 0.125 0
50 2 0.083333 0.125 0.0380243
51 2 0.0416662 0.125 0.0760006
52 2 0.0625 0.15625 0
53 2 0.0208331 0.15625 0.0380245
54 2 0.104166 0.156249 0.0760004
55 2 -5.54822e-07 0.125 0.113976
56 2 0.0833321 0.124999 0.151951
57 2 0.0416652 0.124999 0.189927
58 2 0.0624993 0.156249 0.113976
59 2 0.0208325 0.15625 0.151951
60 2 0.104165 0.156248 0.189926
1339 2 0.374959 0.437487 0.341783
62 2 0.0833302 0.124997 0.265877
63 2 0.0416633 0.124997 0.303853
64 2 0.0624979 0.156248 0.227902
65 2 0.0208309 0.156248 0.265878
66 2 0.104162 0.156245 0.303852
1338 2 0.479193 0.46875 0.303924
68 2 0.0833307 0.124995 0.379805
69 2 0.0416651 0.124996 0.41783
70 2 0.0624959 0.156245 0.341828
71 2 0.0208297 0.156245 0.379805
72 2 0.104166 0.156244 0.417829
73 2 0 0.1875 0
74 2 0.083333 0.1875 0.0380244
75 2 0.0416663 0.1875 0.0760007
76 2 0.0625 0.21875 0
77 2 0.0208332 0.21875 0.0380245
78 2 0.104166 0.218749 0.0760004
1337 2 0.39582 0.46875 0.265847
80 2 0.0833324 0.187499 0.151951
81 2 0.0416656 0.187499 0.189927
82 2 0.0624995 0.218749 0.113976
83 2 0.0208329 0.21875 0.151951
84 2 0.104165 0.218748 0.189926
85 2 -1.244e-06 0.187499 0.227902
86 2 0.0833304 0.187496 0.265877
87 2 0.0416633 0.187496 0.303853
88 2 0.0624987 0.218748 0.227902
89 2 0.0208318 0.218748 0.265878
90 2 0.104163 0.218744 0.303852
1336 2 0.437505 0.46875 0.227902
92 2 0.0833292 0.187493 0.379805
93 2 0.0416642 0.187494 0.41783
94 2 0.062496 0.218744 0.341828
95 2 0.0208298 0.218743 0.379806
96 2 0.104163 0.218741 0.417829
97 2 0 0.25 0
98 2 0.0833331 0.25 0.0380244
99 2 0.0416665 0.25 0.0760007
100 2 0.0625 0.28125 0
101 2 0.0208334 0.28125 0.0380244
102 2 0.104166 0.281249 0.0760004
1335 2 0.416638 0.437496 0.303803
104 2 0.0833329 0.249999 0.151951
105 2 0.0416664 0.249999 0.189927
106 2 0.0625 0.28125 0.113976
107 2 0.0208337 0.28125 0.151951
108 2 0.104167 0.281248 0.189926
109 2 -9.812e-08 0.249999 0.227902
110 2 0.083332 0.249996 0.265877
111 2 0.0416652 0.249996 0.303853
112 2 0.0625005 0.281248 0.227902
113 2 0.0208343 0.281248 0.265877
114 2 0.104166 0.281244 0.303852
115 2 -1.61856e-06 0.249995 0.341829
116 2 0.0833286 0.249991 0.379805
117 2 0.0416636 0.249991 0.41783
118 2 0.0624989 0.281243 0.341828
119 2 0.0208327 0.281242 0.379805
120 2 0.10416 0.281239 0.417829
121 2 0 0.3125 0
122 2 0.0833334 0.3125 0.0380243
123 2 0.0416669 0.3125 0.0760005
124 2 0.0625 0.34375 0
125 2 0.0208337 0.34375 0.0380243
126 2 0.104167 0.34375 0.0760002
127 2 6.06503e-07 0.3125 0.113976
128 2 0.083334 0.312499 0.151951
129 2 0.0416681 0.312499 0.189926
130 2 0.0625009 0.34375 0.113975
131 2 0.020835 0.34375 0.151951
132 2 0.104169 0.343749 0.189925
133 2 2.29891e-06 0.3125 0.227902
134 2 0.0833356 0.312497 0.265876
135 2 0.04167 0.312496 0.303852
136 2 0.0625039 0.343749 0.227901
137 2 0.0208393 0.343748 0.265876
138 2 0.10417 0.343745 0.303851
139 2 4.48195e-06 0.312495 0.341828
140 2 0.0833301 0.31249 0.379804
141 2 0.0416636 0.312491 0.41783
142 2 0.0625046 0.343744 0.341827
143 2 0.0208383 0.343743 0.379804
144 2 0.104156 0.34374 0.417828
145 2 0 0.375 0
146 2 0.0833337 0.375 0.0380242
147 2 0.0416676 0.375 0.0760001
148 2 0.0625 0.40625 0
149 2 0.020834 0.40625 0.038024
150 2 0.104168 0.40625 0.0759999
151 2 1.61611e-06 0.375 0.113975
152 2 0.0833356 0.374999 0.15195
153 2 0.0416707 0.375 0.189925
154 2 0.062502 0.40625 0.113975
155 2 0.0208368 0.40625 0.151949
156 2 0.104171 0.406249 0.189925
157 2 6.5357e-06 0.375 0.2279
158 2 0.0833405 0.374998 0.265875
159 2 0.0416769 0.374997 0.30385
160 2 0.0625076 0.406249 0.2279
161 2 0.0208454 0.406249 0.265874
162 2 0.104175 0.406247 0.30385
163 2 1.3622e-05 0.374995 0.341825
164 2 0.0833332 0.374993 0.379803
165 2 0.0416643 0.374993 0.417828
166 2 0.0625104 0.406246 0.341825
167 2 0.020844 0.406245 0.379802
168 2 0.104154 0.406244 0.417828
169 2 0 0.4375 0
170 2 0.083334 0.4375 0.038024
171 2 0.0416681 0.4375 0.0759997
172 2 0.0625 0.46875 0
173 2 0.0208342 0.46875 0.0380239
174 2 0.104168 0.46875 0.0759997
175 2 2.58618e-06 0.4375 0.113974
176 2 0.083337 0.4375 0.151949
177 2 0.041673 0.4375 0.189924
178 2 0.0625025 0.46875 0.113975
179 2 0.0208377 0.46875 0.151949
180 2 0.104172 0.46875 0.189924
181 2 1.05332e-05 0.4375 0.227898
182 2 0.0833441 0.437499 0.265874
183 2 0.0416823 0.437499 0.303849
184 2 0.0625094 0.46875 0.227899
185 2 0.0208483 0.46875 0.265873
186 2 0.104177 0.46875 0.303849
187 2 2.0778e-05 0.437498 0.341823
188 2 0.0833357 0.437497 0.379802
189 2 0.041665 0.437498 0.417827
190 2 0.0625129 0.46875 0.341825
191 2 0.0208465 0.46875 0.3798
192 2 0.104153 0.46875 0.417827
385 2 0.125 0 0
1597 2 0.499999 0.125 0.227903
1573 2 0.5 0.0624998 0.227903
388 2 0.1875 0.03125 0
389 2 0.145833 0.0312498 0.0380243
390 2 0.229166 0.0312497 0.0760005
1334 2 0.458345 0.437511 0.265893
1333 2 0.374996 0.437499 0.227883
1332 2 0.479173 0.46875 0.189935
394 2 0.187499 0.0312495 0.113976
395 2 0.145832 0.0312493 0.151951
396 2 0.229165 0.031249 0.189927
1331 2 0.395835 0.46875 0.151946
1330 2 0.437502 0.46875 0.113975
1329 2 0.41667 0.437501 0.189922
400 2 0.187498 0.0312485 0.227902
401 2 0.145831 0.0312483 0.265877
402 2 0.229166 0.0312481 0.303853
1328 2 0.458337 0.437501 0.151953
1327 2 0.375001 0.4375 0.113972
1326 2 0.479168 0.46875 0.076001
406 2 0.1875 0.031248 0.341829
407 2 0.145833 0.0312482 0.379805
408 2 0.229169 0.0312487 0.41783
409 2 0.125 0.0625 0
410 2 0.208333 0.0624997 0.0380243
411 2 0.166666 0.0624995 0.0760004
412 2 0.1875 0.09375 0
413 2 0.145833 0.0937497 0.0380243
414 2 0.229166 0.0937493 0.0760003
415 2 0.124999 0.0624994 0.113976
416 2 0.208332 0.0624989 0.151951
417 2 0.166665 0.0624984 0.189926
418 2 0.187499 0.093749 0.113975
419 2 0.145832 0.0937487 0.151951
420 2 0.229165 0.0937479 0.189926
421 2 0.124998 0.0624981 0.227902
422 2 0.208331 0.0624972 0.265877
423 2 0.166664 0.0624968 0.303853
424 2 0.187498 0.093747 0.227901
425 2 0.14583 0.0937465 0.265877
426 2 0.229165 0.0937456 0.303853
427 2 0.124998 0.0624969 0.341828
428 2 0.208334 0.0624973 0.379805
429 2 0.166668 0.0624975 0.41783
430 2 0.187498 0.0937454 0.341828
431 2 0.145832 0.0937458 0.379805
432 2 0.229169 0.0937471 0.41783
433 2 0.125 0.125 0
434 2 0.208333 0.125 0.0380242
435 2 0.166666 0.124999 0.0760002
436 2 0.1875 0.15625 0
437 2 0.145833 0.15625 0.0380242
438 2 0.229166 0.156249 0.0760001
439 2 0.124999 0.124999 0.113976
440 2 0.208332 0.124998 0.15195
441 2 0.166665 0.124998 0.189926
442 2 0.187499 0.156249 0.113975
443 2 0.145832 0.156248 0.151951
444 2 0.229165 0.156247 0.189925
445 2 0.124997 0.124997 0.227901
446 2 0.20833 0.124995 0.265876
447 2 0.166663 0.124994 0.303852
448 2 0.187497 0.156246 0.2279
449 2 0.14583 0.156245 0.265876
450 2 0.229163 0.156242 0.303851
451 2 0.124997 0.124995 0.341828
452 2 0.208333 0.124994 0.379804
453 2 0.166667 0.124995 0.417829
454 2 0.187496 0.156242 0.341827
455 2 0.14583 0.156243 0.379804
456 2 0.229168 0.156245 0.417828
457 2 0.125 0.1875 0
458 2 0.208333 0.187499 0.0380241
459 2 0.166666 0.187499 0.0760001
460 2 0.1875 0.21875 0
461 2 0.145833 0.21875 0.0380242
462 2 0.229166 0.218749 0.0759998
463 2 0.124999 0.187499 0.113975
464 2 0.208332 0.187498 0.15195
465 2 0.166665 0.187497 0.189925
466 2 0.187499 0.218748 0.113975
467 2 0.145832 0.218748 0.15195
468 2 0.229165 0.218746 0.189924
469 2 0.124998 0.187497 0.227901
470 2 0.208329 0.187493 0.265875
471 2 0.166662 0.187492 0.303851
472 2 0.187497 0.218745 0.2279
473 2 0.14583 0.218744 0.265876
474 2 0.22916 0.218739 0.303849
475 2 0.124995 0.187492 0.341827
476 2 0.20833 0.18749 0.379803
477 2 0.166665 0.187492 0.417828
478 2 0.187493 0.218738 0.341825
479 2 0.145828 0.218739 0.379803
480 2 0.229165 0.218741 0.417826
481 2 0.125 0.25 0
482 2 0.208333 0.249999 0.038024
483 2 0.166666 0.249999 0.076
484 2 0.1875 0.28125 0
485 2 0.145833 0.28125 0.0380242
486 2 0.229166 0.281249 0.0759994
487 2 0.124999 0.249999 0.113975
488 2 0.208332 0.249997 0.151949
489 2 0.166665 0.249997 0.189925
490 2 0.187499 0.281248 0.113975
491 2 0.145833 0.281248 0.15195
492 2 0.229165 0.281246 0.189923
493 2 0.124999 0.249997 0.227901
494 2 0.208329 0.249992 0.265873
495 2 0.166662 0.249991 0.30385
496 2 0.187499 0.281245 0.227899
497 2 0.145832 0.281244 0.265875
498 2 0.22916 0.281237 0.303846
499 2 0.124995 0.24999 0.341827
500 2 0.208324 0.249985 0.379801
501 2 0.166661 0.249989 0.417827
502 2 0.187491 0.281236 0.341824
503 2 0.145824 0.281237 0.379802
504 2 0.229155 0.281236 0.417823
505 2 0.125 0.3125 0
506 2 0.208333 0.312499 0.0380238
507 2 0.166666 0.312499 0.0759998
508 2 0.1875 0.34375 0
509 2 0.145833 0.34375 0.0380241
510 2 0.229166 0.343749 0.075999
511 2 0.125 0.312499 0.113975
512 2 0.208333 0.312498 0.151949
513 2 0.166667 0.312497 0.189924
514 2 0.1875 0.343749 0.113974
515 2 0.145834 0.343749 0.15195
516 2 0.229167 0.343747 0.189922
517 2 0.125001 0.312497 0.2279
518 2 0.208332 0.312492 0.265872
519 2 0.166665 0.312492 0.303849
520 2 0.187501 0.343746 0.227898
521 2 0.145836 0.343746 0.265875
522 2 0.229162 0.343739 0.303844
523 2 0.124997 0.312491 0.341826
524 2 0.208315 0.312482 0.379798
525 2 0.166651 0.312486 0.417827
526 2 0.187493 0.343739 0.341823
527 2 0.145824 0.343739 0.379802
528 2 0.229134 0.343731 0.417821
529 2 0.125 0.375 0
530 2 0.208333 0.375 0.0380237
531 2 0.166667 0.374999 0.0759996
532 2 0.1875 0.40625 0
533 2 0.145834 0.40625 0.038024
534 2 0.229167 0.406249 0.0759987
535 2 0.125001 0.374999 0.113975
536 2 0.208334 0.374998 0.151948
537 2 0.166669 0.374998 0.189924
538 2 0.187501 0.406249 0.113974
539 2 0.145836 0.406249 0.151949
540 2 0.229168 0.406248 0.189921
541 2 0.125004 0.374998 0.2279
542 2 0.208335 0.374995 0.265872
543 2 0.166669 0.374994 0.303849
544 2 0.187504 0.406248 0.227898
545 2 0.145839 0.406248 0.265874
546 2 0.229165 0.406244 0.303844
547 2 0.125002 0.374993 0.341826
548 2 0.208313 0.374986 0.379797
549 2 0.166642 0.374989 0.417826
550 2 0.187496 0.406244 0.341823
551 2 0.145825 0.406243 0.379801
552 2 0.229118 0.406236 0.41782
553 2 0.125 0.4375 0
554 2 0.208333 0.4375 0.0380236
555 2 0.166667 0.4375 0.0759995
556 2 0.1875 0.46875 0
557 2 0.145834 0.46875 0.0380239
558 2 0.229167 0.46875 0.0759986
559 2 0.125002 0.4375 0.113975
560 2 0.208335 0.437499 0.151948
561 2 0.16667 0.437499 0.189924
562 2 0.187501 0.46875 0.113974
563 2 0.145836 0.46875 0.151949
564 2 0.229169 0.46875 0.189921
565 2 0.125007 0.437499 0.227899
566 2 0.208336 0.437498 0.265871
567 2 0.166671 0.437498 0.303849
568 2 0.187505 0.46875 0.227898
569 2 0.145841 0.46875 0.265874
570 2 0.229166 0.46875 0.303844
571 2 0.125005 0.437498 0.341825
572 2 0.208313 0.437495 0.379797
573 2 0.166637 0.437496 0.417826
574 2 0.187497 0.46875 0.341823
575 2 0.145826 0.46875 0.379801
576 2 0.229112 0.46875 0.417821
769 2 0.25 0 0
1325 2 0.395834 0.46875 0.0380235
1324 2 0.4375 0.46875 0
772 2 0.3125 0.03125 0
773 2 0.270833 0.0312498 0.0380244
774 2 0.354166 0.0312498 0.0760008
1323 2 0.416668 0.4375 0.0759993
1322 2 0.458334 0.4375 0.0380243
1321 2 0.375 0.4375 0
778 2 0.3125 0.0312497 0.113976
779 2 0.270833 0.0312494 0.151951
780 2 0.354166 0.0312496 0.189928
1320 2 0.479222 0.406449 0.417655
1319 2 0.395723 0.406197 0.379727
1318 2 0.437479 0.40624 0.341756
784 2 0.312499 0.0312492 0.227903
785 2 0.270833 0.0312486 0.265878
786 2 0.354168 0.0312498 0.303855
1317 2 0.416649 0.375017 0.417783
1316 2 0.458261 0.374986 0.379758
1315 2 0.374969 0.374974 0.341786
790 2 0.312502 0.0312494 0.34183
791 2 0.270836 0.031249 0.379806
792 2 0.354171 0.0312507 0.417831
793 2 0.25 0.0625 0
794 2 0.333333 0.0624998 0.0380245
795 2 0.291666 0.0624996 0.0760006
796 2 0.3125 0.09375 0
797 2 0.270833 0.0937497 0.0380243
798 2 0.354166 0.0937496 0.0760008
799 2 0.249999 0.0624993 0.113976
800 2 0.333333 0.0624994 0.151952
801 2 0.291666 0.0624988 0.189927
802 2 0.3125 0.0937493 0.113976
803 2 0.270832 0.0937487 0.151951
804 2 0.354166 0.0937491 0.189927
805 2 0.249999 0.0624979 0.227902
806 2 0.333333 0.0624988 0.265879
807 2 0.291667 0.0624979 0.303854
808 2 0.312499 0.0937481 0.227902
809 2 0.270832 0.0937467 0.265877
810 2 0.354168 0.093749 0.303855
811 2 0.250001 0.0624973 0.341829
812 2 0.333337 0.0625001 0.379807
813 2 0.29167 0.0624991 0.41783
814 2 0.312502 0.0937479 0.34183
815 2 0.270836 0.0937473 0.379805
816 2 0.354171 0.0937514 0.417831
817 2 0.25 0.125 0
818 2 0.333333 0.125 0.0380244
819 2 0.291666 0.124999 0.0760004
820 2 0.3125 0.15625 0
821 2 0.270833 0.15625 0.0380242
822 2 0.354166 0.156249 0.0760006
823 2 0.249999 0.124999 0.113975
824 2 0.333333 0.124999 0.151951
825 2 0.291665 0.124998 0.189926
826 2 0.3125 0.156249 0.113976
827 2 0.270832 0.156248 0.15195
828 2 0.354166 0.156249 0.189927
829 2 0.249998 0.124996 0.227901
830 2 0.333332 0.124997 0.265878
831 2 0.291665 0.124995 0.303853
832 2 0.312498 0.156247 0.227901
833 2 0.27083 0.156244 0.265876
834 2 0.354166 0.156247 0.303854
835 2 0.249999 0.124994 0.341828
836 2 0.333337 0.124999 0.379806
837 2 0.29167 0.124998 0.41783
838 2 0.3125 0.156245 0.341828
839 2 0.270834 0.156244 0.379804
840 2 0.354172 0.156253 0.417831
841 2 0.25 0.1875 0
842 2 0.333333 0.1875 0.0380243
843 2 0.291666 0.187499 0.0760001
844 2 0.3125 0.21875 0
845 2 0.270833 0.218749 0.038024
846 2 0.354167 0.218749 0.0760002
847 2 0.249999 0.187498 0.113975
848 2 0.333333 0.187499 0.151951
849 2 0.291665 0.187497 0.189925
850 2 0.3125 0.218749 0.113975
851 2 0.270832 0.218747 0.151949
852 2 0.354166 0.218749 0.189925
853 2 0.249997 0.187495 0.2279
854 2 0.333331 0.187495 0.265876
855 2 0.291663 0.187492 0.303851
856 2 0.312498 0.218745 0.227899
857 2 0.270829 0.218742 0.265873
858 2 0.354163 0.218744 0.303851
859 2 0.249995 0.18749 0.341826
860 2 0.333335 0.187497 0.379804
861 2 0.291669 0.187496 0.417828
862 2 0.312495 0.218739 0.341825
863 2 0.270829 0.218739 0.379801
864 2 0.354171 0.218753 0.417828
865 2 0.25 0.25 0
866 2 0.333333 0.25 0.038024
867 2 0.291666 0.249999 0.0759995
868 2 0.3125 0.28125 0
869 2 0.270833 0.281249 0.0380237
870 2 0.354167 0.281249 0.0759996
871 2 0.249999 0.249998 0.113974
872 2 0.333333 0.249998 0.151949
873 2 0.291665 0.249996 0.189923
874 2 0.3125 0.281248 0.113974
875 2 0.270832 0.281247 0.151948
876 2 0.354167 0.281248 0.189922
877 2 0.249997 0.249994 0.227898
878 2 0.33333 0.249993 0.265872
879 2 0.291659 0.249987 0.303846
880 2 0.312498 0.281244 0.227895
881 2 0.270829 0.28124 0.26587
882 2 0.354158 0.281239 0.303843
883 2 0.24999 0.249984 0.341822
884 2 0.333328 0.24999 0.379799
885 2 0.291664 0.249992 0.417823
886 2 0.312485 0.281231 0.341817
887 2 0.270817 0.281231 0.379796
888 2 0.354164 0.28125 0.41782
889 2 0.25 0.3125 0
890 2 0.333333 0.3125 0.0380236
891 2 0.291666 0.312499 0.0759987
892 2 0.3125 0.34375 0
893 2 0.270833 0.343749 0.0380234
894 2 0.354167 0.343749 0.0759987
895 2 0.249999 0.312498 0.113973
896 2 0.333333 0.312498 0.151947
897 2 0.291666 0.312496 0.18992
898 2 0.3125 0.343749 0.113972
899 2 0.270833 0.343747 0.151946
900 2 0.354167 0.343748 0.189918
901 2 0.249998 0.312494 0.227896
902 2 0.33333 0.312491 0.265865
903 2 0.291657 0.312485 0.303839
904 2 0.312498 0.343744 0.227891
905 2 0.27083 0.343741 0.265867
906 2 0.354156 0.343736 0.30383
907 2 0.249985 0.312481 0.341817
908 2 0.333306 0.312477 0.379788
909 2 0.291647 0.312484 0.417816
910 2 0.312476 0.343726 0.341806
911 2 0.270799 0.343725 0.379789
912 2 0.35414 0.343737 0.417804
913 2 0.25 0.375 0
914 2 0.333333 0.375 0.0380233
915 2 0.291666 0.374999 0.0759981
916 2 0.3125 0.40625 0
917 2 0.270833 0.40625 0.0380232
918 2 0.354167 0.40625 0.0759979
919 2 0.25 0.374999 0.113973
920 2 0.333333 0.374998 0.151944
921 2 0.291666 0.374997 0.189918
922 2 0.3125 0.406249 0.113971
923 2 0.270833 0.406249 0.151946
924 2 0.354166 0.406249 0.189915
925 2 0.25 0.374996 0.227894
926 2 0.333328 0.374992 0.265859
927 2 0.291658 0.374988 0.303836
928 2 0.312498 0.406246 0.227889
929 2 0.270831 0.406245 0.265866
930 2 0.35415 0.406239 0.303823
931 2 0.249986 0.374986 0.341816
932 2 0.333271 0.374963 0.379769
933 2 0.291599 0.374969 0.417809
934 2 0.312476 0.406235 0.341804
935 2 0.270796 0.406234 0.379788
936 2 0.354015 0.406194 0.417784
937 2 0.25 0.4375 0
938 2 0.333333 0.4375 0.038023
939 2 0.291667 0.4375 0.0759977
940 2 0.3125 0.46875 0
941 2 0.270833 0.46875 0.0380231
942 2 0.354167 0.46875 0.0759977
943 2 0.25 0.437499 0.113972
944 2 0.333333 0.437499 0.151943
945 2 0.291666 0.437499 0.189917
946 2 0.3125 0.46875 0.113971
947 2 0.270834 0.46875 0.151945
948 2 0.354165 0.46875 0.189914
949 2 0.250001 0.437498 0.227894
950 2 0.333326 0.437497 0.265857
951 2 0.291658 0.437496 0.303836
952 2 0.312497 0.46875 0.227888
953 2 0.270832 0.46875 0.265866
954 2 0.354148 0.46875 0.303823
955 2 0.249988 0.437495 0.341817
956 2 0.333272 0.437486 0.379772
957 2 0.291571 0.437486 0.417809
958 2 0.312476 0.46875 0.341805
959 2 0.270797 0.46875 0.379789
960 2 0.353978 0.46875 0.417789
1153 2 0.375 0 0
1154 2 0.458333 -6.99332e-08 0.0380246
1314 2 0.479205 0.406308 0.303905
1156 2 0.4375 0.03125 0
1157 2 0.395833 0.0312499 0.0380245
1158 2 0.479166 0.0312498 0.0760009
1313 2 0.395826 0.406248 0.265851
1312 2 0.437507 0.406257 0.227902
1311 2 0.416665 0.375 0.303823
1162 2 0.4375 0.0312497 0.113976
1163 2 0.395833 0.0312497 0.151952
1164 2 0.479166 0.0312497 0.189928
1310 2 0.458349 0.375023 0.265888
1309 2 0.374999 0.374998 0.227887
1308 2 0.479173 0.406254 0.189933
1168 2 0.4375 0.0312499 0.227903
1169 2 0.395834 0.03125 0.265879
1170 2 0.479168 0.0312509 0.303855
1307 2 0.395835 0.40625 0.151946
1172 2 0.458337 1.43794e-06 0.379807
1306 2 0.437502 0.406251 0.113975
1174 2 0.437503 0.0312516 0.341831
1175 2 0.395837 0.0312516 0.379807
1176 2 0.479169 0.0312538 0.417831
1177 2 0.375 0.0625 0
1178 2 0.458333 0.0624998 0.0380245
1179 2 0.416666 0.0624997 0.0760009
1180 2 0.4375 0.09375 0
1181 2 0.395833 0.0937498 0.0380245
1182 2 0.479166 0.0937495 0.0760008
1183 2 0.375 0.0624996 0.113976
1184 2 0.458333 0.0624996 0.151952
1185 2 0.416666 0.0624997 0.189928
1186 2 0.4375 0.0937495 0.113976
1187 2 0.395833 0.0937495 0.151952
1188 2 0.479166 0.0937495 0.189928
1189 2 0.375 0.0624995 0.227903
1190 2 0.458334 0.0625004 0.265879
1191 2 0.416668 0.0625009 0.303855
1192 2 0.4375 0.0937499 0.227903
1193 2 0.395834 0.0937499 0.265879
1194 2 0.479168 0.0937519 0.303855
1195 2 0.375003 0.0625008 0.341831
1196 2 0.458337 0.0625044 0.379807
1197 2 0.416671 0.0625036 0.417832
1198 2 0.437503 0.0937533 0.341831
1199 2 0.395838 0.0937533 0.379807
1200 2 0.479169 0.0937589 0.417832
1201 2 0.375 0.125 0
1202 2 0.458333 0.125 0.0380245
1203 2 0.416666 0.125 0.0760008
1204 2 0.4375 0.15625 0
1205 2 0.395833 0.15625 0.0380245
1206 2 0.479166 0.156249 0.0760007
1207 2 0.375 0.124999 0.113976
1208 2 0.458333 0.124999 0.151952
1209 2 0.416666 0.125 0.189928
1210 2 0.4375 0.156249 0.113976
1211 2 0.395833 0.15625 0.151952
1212 2 0.479166 0.156249 0.189927
1213 2 0.374999 0.124999 0.227903
1214 2 0.458333 0.125001 0.265879
1215 2 0.416668 0.125001 0.303855
1216 2 0.437499 0.15625 0.227903
1217 2 0.395833 0.15625 0.265879
1218 2 0.479167 0.156253 0.303855
1219 2 0.375003 0.125001 0.341831
1220 2 0.458338 0.125009 0.379808
1221 2 0.416671 0.125007 0.417832
1222 2 0.437503 0.156255 0.341832
1223 2 0.395839 0.156255 0.379808
1224 2 0.479169 0.156268 0.417832
1225 2 0.375 0.1875 0
1226 2 0.458333 0.1875 0.0380244
1227 2 0.416667 0.1875 0.0760006
1228 2 0.4375 0.21875 0
1229 2 0.395833 0.21875 0.0380243
1230 2 0.479166 0.218749 0.0760005
1231 2 0.375 0.187499 0.113976
1232 2 0.458333 0.1875 0.151952
1233 2 0.416666 0.1875 0.189927
1234 2 0.4375 0.21875 0.113976
1235 2 0.395833 0.21875 0.151951
1236 2 0.479166 0.21875 0.189927
1237 2 0.374999 0.187499 0.227902
1238 2 0.458332 0.187502 0.265879
1239 2 0.416667 0.187502 0.303855
1240 2 0.437499 0.218752 0.227903
1241 2 0.395832 0.218749 0.265877
1242 2 0.479166 0.218756 0.303856
1243 2 0.375001 0.187499 0.341829
1244 2 0.458339 0.187514 0.379809
1245 2 0.416673 0.187513 0.417832
1246 2 0.437502 0.218757 0.341832
1247 2 0.395837 0.218756 0.379806
1248 2 0.47917 0.218783 0.417833
1249 2 0.375 0.25 0
1250 2 0.458333 0.25 0.0380243
1251 2 0.416667 0.25 0.0760004
1252 2 0.4375 0.28125 0
1253 2 0.395834 0.28125 0.0380242
1254 2 0.479167 0.28125 0.0760004
1255 2 0.375 0.25 0.113975
1256 2 0.458334 0.25 0.151951
1257 2 0.416667 0.250001 0.189926
1258 2 0.437501 0.28125 0.113976
1259 2 0.395835 0.281251 0.15195
1260 2 0.479167 0.281251 0.189926
1261 2 0.374999 0.249999 0.227899
1262 2 0.458332 0.250005 0.265879
1263 2 0.416664 0.250001 0.303852
1264 2 0.437501 0.281254 0.227902
1265 2 0.395832 0.281249 0.265872
1266 2 0.479164 0.281261 0.303858
1267 2 0.374995 0.249993 0.341825
1268 2 0.458338 0.250022 0.37981
1269 2 0.416673 0.250021 0.41783
1270 2 0.437495 0.281255 0.341828
1271 2 0.395827 0.28125 0.379799
1272 2 0.479171 0.281312 0.417835
1273 2 0.375 0.3125 0
1274 2 0.458334 0.3125 0.0380243
1275 2 0.416667 0.3125 0.076
1276 2 0.4375 0.34375 0
1277 2 0.395834 0.34375 0.0380239
1278 2 0.479168 0.34375 0.0760005
1279 2 0.375001 0.3125 0.113974
1280 2 0.458335 0.312502 0.151951
1281 2 0.41667 0.312503 0.189925
1282 2 0.437502 0.343751 0.113975
1283 2 0.395835 0.343751 0.151948
1284 2 0.479171 0.343754 0.189929
1285 2 0.375001 0.312499 0.227894
1286 2 0.458336 0.31251 0.265877
1287 2 0.41666 0.312499 0.303842
1288 2 0.437507 0.343759 0.227903
1289 2 0.395834 0.34375 0.265863
1290 2 0.479168 0.343769 0.303853
1291 2 0.37498 0.312482 0.341811
1292 2 0.458329 0.312522 0.379808
1293 2 0.416666 0.312528 0.417819
1294 2 0.437477 0.343743 0.341807
1295 2 0.39579 0.343727 0.379778
1296 2 0.479163 0.343866 0.417832
1297 2 0.375 0.375 0
1298 2 0.458334 0.375 0.0380243
1299 2 0.416668 0.375 0.0759996
1300 2 0.4375 0.40625 0
1301 2 0.395834 0.40625 0.0380236
1302 2 0.479168 0.40625 0.0760009
1303 2 0.375001 0.375 0.113973
1304 2 0.458337 0.375002 0.151952
1305 2 0.41667 0.375003 0.189923
578 2 0.208333 0.5 0.0380236
579 2 0.166667 0.5 0.0759995
584 2 0.208335 0.500001 0.151948
590 2 0.208336 0.500002 0.265871
591 2 0.166671 0.500002 0.303848
1352 2 0.458337 0.499999 0.151953
1353 2 0.41667 0.499999 0.189922
1357 2 0.374996 0.500001 0.227883
1358 2 0.458345 0.499989 0.265893
1364 2 0.458154 0.50005 0.379591
193 2 0 0.5 0
194 2 0.083334 0.5 0.038024
195 2 0.0416681 0.5 0.0759997
196 2 0.0625 0.53125 0
197 2 0.020834 0.53125 0.038024
198 2 0.104168 0.53125 0.0759999
199 2 2.59456e-06 0.5 0.113974
200 2 0.083337 0.5 0.151949
201 2 0.041673 0.5 0.189924
202 2 0.062502 0.53125 0.113975
203 2 0.0208368 0.53125 0.151949
204 2 0.104171 0.531251 0.189925
205 2 1.05512e-05 0.5 0.227898
206 2 0.0833442 0.500001 0.265874
207 2 0.0416823 0.500001 0.303849
208 2 0.0625077 0.531251 0.2279
209 2 0.0208454 0.531251 0.265874
210 2 0.104175 0.531253 0.30385
211 2 2.08024e-05 0.500002 0.341823
212 2 0.0833357 0.500003 0.379802
213 2 0.041665 0.500002 0.417827
214 2 0.0625105 0.531254 0.341825
215 2 0.020844 0.531255 0.379801
216 2 0.104154 0.531256 0.417828
217 2 0 0.5625 0
218 2 0.0833337 0.5625 0.0380242
219 2 0.0416676 0.5625 0.0760001
220 2 0.0625 0.59375 0
221 2 0.0208337 0.59375 0.0380243
222 2 0.104167 0.59375 0.0760002
223 2 1.63628e-06 0.5625 0.113975
224 2 0.0833356 0.562501 0.15195
225 2 0.0416707 0.5625 0.189925
226 2 0.0625009 0.59375 0.113975
227 2 0.020835 0.59375 0.151951
228 2 0.104169 0.593751 0.189925
229 2 6.57884e-06 0.5625 0.2279
230 2 0.0833405 0.562502 0.265875
231 2 0.041677 0.562503 0.30385
232 2 0.0625039 0.593751 0.227901
233 2 0.0208393 0.593752 0.265876
234 2 0.10417 0.593755 0.303851
235 2 1.36813e-05 0.562505 0.341825
236 2 0.0833332 0.562507 0.379803
237 2 0.0416643 0.562507 0.417828
238 2 0.0625046 0.593756 0.341827
239 2 0.0208383 0.593757 0.379804
240 2 0.104156 0.59376 0.417828
241 2 0 0.625 0
242 2 0.0833334 0.625 0.0380243
243 2 0.0416669 0.625 0.0760005
244 2 0.0625 0.65625 0
245 2 0.0208334 0.65625 0.0380244
246 2 0.104166 0.656251 0.0760004
247 2 6.28238e-07 0.625 0.113976
248 2 0.083334 0.625001 0.151951
249 2 0.0416681 0.625001 0.189926
250 2 0.0625 0.65625 0.113976
251 2 0.0208337 0.65625 0.151951
252 2 0.104167 0.656252 0.189926
253 2 2.34485e-06 0.625 0.227902
254 2 0.0833356 0.625003 0.265876
255 2 0.0416701 0.625004 0.303852
256 2 0.0625006 0.656252 0.227902
257 2 0.0208343 0.656252 0.265877
258 2 0.104166 0.656256 0.303852
259 2 4.54633e-06 0.625005 0.341828
260 2 0.0833301 0.62501 0.379804
261 2 0.0416636 0.625009 0.41783
262 2 0.0624989 0.656257 0.341828
263 2 0.0208327 0.656258 0.379805
264 2 0.10416 0.656261 0.417829
265 2 0 0.6875 0
266 2 0.0833331 0.6875 0.0380244
267 2 0.0416665 0.6875 0.0760007
268 2 0.0625 0.71875 0
269 2 0.0208332 0.71875 0.0380245
270 2 0.104166 0.718751 0.0760004
1536 2 0.479169 0.96875 0.417831
272 2 0.0833329 0.687501 0.151951
273 2 0.0416665 0.687501 0.189927
274 2 0.0624995 0.718751 0.113976
275 2 0.0208329 0.71875 0.151951
276 2 0.104165 0.718752 0.189926
277 2 -6.62303e-08 0.687501 0.227902
278 2 0.083332 0.687504 0.265877
279 2 0.0416652 0.687504 0.303853
280 2 0.0624987 0.718752 0.227902
281 2 0.0208318 0.718752 0.265878
282 2 0.104163 0.718756 0.303852
283 2 -1.57323e-06 0.687505 0.341829
284 2 0.0833285 0.687509 0.379805
285 2 0.0416636 0.687509 0.41783
286 2 0.062496 0.718757 0.341828
287 2 0.0208298 0.718757 0.379806
288 2 0.104163 0.718759 0.417829
289 2 0 0.75 0
290 2 0.083333 0.75 0.0380244
291 2 0.0416663 0.75 0.0760007
292 2 0.0625 0.78125 0
293 2 0.0208331 0.78125 0.0380245
294 2 0.104166 0.781251 0.0760004
1535 2 0.395837 0.96875 0.379807
296 2 0.0833324 0.750001 0.151951
297 2 0.0416656 0.750001 0.189927
298 2 0.0624993 0.781251 0.113976
299 2 0.0208325 0.78125 0.151951
300 2 0.104165 0.781252 0.189926
301 2 -1.22979e-06 0.750001 0.227902
302 2 0.0833304 0.750004 0.265877
303 2 0.0416633 0.750004 0.303853
304 2 0.0624979 0.781252 0.227902
305 2 0.0208309 0.781252 0.265878
306 2 0.104162 0.781255 0.303852
1534 2 0.437503 0.96875 0.341831
308 2 0.0833292 0.750007 0.379805
309 2 0.0416642 0.750007 0.41783
310 2 0.0624959 0.781255 0.341828
311 2 0.0208297 0.781255 0.379805
312 2 0.104165 0.781256 0.417829
313 2 0 0.8125 0
314 2 0.083333 0.8125 0.0380243
315 2 0.0416662 0.8125 0.0760006
316 2 0.0625 0.84375 0
317 2 0.0208331 0.84375 0.0380244
318 2 0.104166 0.84375 0.0760004
319 2 -5.50636e-07 0.8125 0.113976
320 2 0.0833321 0.812501 0.151951
321 2 0.0416652 0.812501 0.189927
322 2 0.0624992 0.84375 0.113976
323 2 0.0208324 0.84375 0.151951
324 2 0.104165 0.843752 0.189926
1533 2 0.41667 0.937499 0.417831
326 2 0.0833302 0.812503 0.265877
327 2 0.0416632 0.812503 0.303853
328 2 0.0624978 0.843752 0.227902
329 2 0.0208308 0.843752 0.265877
330 2 0.104163 0.843754 0.303852
1532 2 0.458337 0.937499 0.379807
332 2 0.0833306 0.812505 0.379805
333 2 0.041665 0.812504 0.41783
334 2 0.0624969 0.843753 0.341828
335 2 0.0208307 0.843753 0.379805
336 2 0.104167 0.843754 0.417829
337 2 0 0.875 0
338 2 0.083333 0.875 0.0380243
339 2 0.0416661 0.875 0.0760005
340 2 0.0625 0.90625 0
341 2 0.020833 0.90625 0.0380244
342 2 0.104166 0.90625 0.0760004
343 2 -6.4761e-07 0.875 0.113976
344 2 0.0833321 0.875001 0.151951
345 2 0.0416651 0.875001 0.189926
346 2 0.0624991 0.90625 0.113976
347 2 0.0208323 0.90625 0.151951
348 2 0.104165 0.906251 0.189926
1531 2 0.375003 0.9375 0.341831
350 2 0.0833306 0.875002 0.265877
351 2 0.0416639 0.875002 0.303853
352 2 0.0624979 0.906251 0.227902
353 2 0.020831 0.906251 0.265877
354 2 0.104164 0.906252 0.303853
1530 2 0.479168 0.96875 0.303855
356 2 0.0833318 0.875003 0.379805
357 2 0.0416658 0.875002 0.41783
358 2 0.0624979 0.906252 0.341828
359 2 0.0208315 0.906251 0.379805
360 2 0.104167 0.906252 0.41783
361 2 0 0.9375 0
362 2 0.083333 0.9375 0.0380243
363 2 0.0416661 0.9375 0.0760005
364 2 0.0625 0.96875 0
365 2 0.020833 0.96875 0.0380244
366 2 0.104166 0.96875 0.0760004
1529 2 0.395834 0.96875 0.265879
368 2 0.0833321 0.9375 0.151951
369 2 0.0416651 0.9375 0.189926
370 2 0.0624991 0.96875 0.113976
371 2 0.0208322 0.96875 0.151951
372 2 0.104165 0.96875 0.189926
1528 2 0.4375 0.96875 0.227903
374 2 0.083331 0.937501 0.265877
375 2 0.0416643 0.937501 0.303853
376 2 0.062498 0.96875 0.227902
377 2 0.0208311 0.96875 0.265877
378 2 0.104165 0.96875 0.303853
1527 2 0.416668 0.9375 0.303855
380 2 0.0833324 0.937501 0.379805
381 2 0.0416661 0.937501 0.41783
382 2 0.0624982 0.96875 0.341829