ITEM: TIMESTEP
0
ITEM: NUMBER OF ATOMS
3074
ITEM: BOX BOUNDS pp pp pp
0.0000000000000000e+00 3.8693948398131120e+01
0.0000000000000000e+00 4.4679925159782847e+01
0.0000000000000000e+00 6.0000000000000000e+01
ITEM: ATOMS id type x y z c_peratom[1] c_peratom[2] c_peratom[3] c_peratom[4] c_peratom[5] c_peratom[6]
1 2 0 0 0 -205991 -205989 7857.41 -0.000151709 0.271872 0.00016863
2 2 3.2245 0 2.279 29869.7 29871.8 -82132 -5.9845e-06 0.366011 8.57855e-05
3 2 1.61225 0 4.55799 43157 43159.1 13509.7 -1.24238e-08 0.365914 4.46516e-05
4 2 2.41837 1.39625 0 -205991 -205989 7857.4 0.000129074 0.272038 0.000313254
5 2 0.806124 1.39625 2.279 29869.7 29871.8 -82132 5.49918e-06 0.365939 0.000167873
6 2 4.03062 1.39625 4.55799 43157 43159.1 13509.7 -0.000193709 0.3659 4.2954e-05
7 2 0 0 6.83699 43283.9 43286.2 15713.4 6.53867e-05 0.544132 -0.000128167
8 2 3.2245 0 9.11598 43284.2 43286.4 15716 5.47194e-05 0.365833 -9.25413e-05
9 2 1.61225 0 11.395 43284.2 43286.4 15716 -1.46016e-06 0.36591 5.4825e-06
10 2 2.41837 1.39625 6.83699 43283.9 43286.2 15713.4 -4.82943e-05 0.543997 -0.000230467
11 2 0.806124 1.39625 9.11598 43284.2 43286.4 15716 -3.911e-05 0.365918 -0.000184135
12 2 4.03062 1.39625 11.395 43284.2 43286.4 15716 7.99427e-05 0.365823 -0.000110862
13 2 0 0 13.674 43283.9 43286.2 15714.8 2.4518e-05 0.543999 7.87486e-06
14 2 3.2245 0 15.953 43284.2 43286.4 15716 -0.000104152 0.365909 -1.30903e-05
15 2 1.61225 0 18.232 43284.2 43286.3 15714.5 7.4326e-06 0.365916 -4.91814e-05
16 2 2.41837 1.39625 13.674 43283.9 43286.2 15714.8 -3.5243e-05 0.543966 1.00343e-05
17 2 0.806124 1.39625 15.953 43284.2 43286.4 15716 6.35717e-05 0.365927 -1.30596e-05
18 2 4.03062 1.39625 18.232 43284.2 43286.3 15714.5 0.000145476 0.366061 0.000141766
19 2 0 0 20.511 43156.6 43158.9 13508.6 -2.44125e-05 0.543983 1.90296e-05
20 2 3.2245 0 22.79 29869.7 29871.8 -82132 6.45716e-05 0.365995 2.13963e-05
21 2 1.61225 0 25.069 -205991 -205989 7858.55 6.02518e-06 0.0938761 7.37314e-05
22 2 2.41837 1.39625 20.511 43156.6 43158.9 13508.6 0.000105013 0.544065 4.57408e-05
23 2 0.806124 1.39625 22.79 29869.7 29871.8 -82132 -7.20422e-05 0.365958 3.22799e-05
24 2 4.03062 1.39625 25.069 -205991 -205989 7858.55 0.000449147 0.0938154 -6.26831e-05
25 2 0 2.7925 0 -205991 -205989 7857.4 -0.000262639 0.272039 0.000278001
26 2 3.2245 2.7925 2.279 29869.7 29871.8 -82132 -1.26897e-05 0.365896 0.000145134
27 2 1.61225 2.7925 4.55799 43157 43159.1 13509.7 -1.77542e-07 0.365914 9.91609e-05
28 2 2.41837 4.18874 0 -205991 -205989 7857.4 9.50913e-05 0.271931 0.000232615
29 2 0.806124 4.18874 2.279 29869.7 29871.8 -82132 6.9737e-06 0.366002 0.000118317
30 2 4.03062 4.18874 4.55799 43157 43159.1 13509.7 -9.11771e-05 0.365855 0.000105242
31 2 0 2.7925 6.83699 43283.9 43286.2 15713.4 7.85191e-05 0.543936 -0.000138843
32 2 3.2245 2.7925 9.11598 43284.2 43286.4 15716 1.55601e-05 0.365935 -0.000185832
33 2 1.61225 2.7925 11.395 43284.2 43286.4 15716 -1.74844e-06 0.365914 -0.000144842
34 2 2.41837 4.18874 6.83699 43283.9 43286.2 15713.4 -1.41519e-05 0.544076 -5.27608e-05
35 2 0.806124 4.18874 9.11598 43284.2 43286.4 15716 3.64505e-05 0.365907 -0.000157328
36 2 4.03062 4.18874 11.395 43284.2 43286.4 15716 -0.000151066 0.365778 -0.000228996
37 2 0 2.7925 13.674 43283.9 43286.2 15714.8 5.23504e-05 0.54412 -8.29436e-05
38 2 3.2245 2.7925 15.953 43284.2 43286.4 15716 0.000117469 0.365991 6.81004e-05
39 2 1.61225 2.7925 18.232 43284.2 43286.3 15714.5 8.81117e-06 0.365913 0.000111995
40 2 2.41837 4.18874 13.674 43283.9 43286.2 15714.8 1.50162e-05 0.544015 -0.000169146
41 2 0.806124 4.18874 15.953 43284.2 43286.4 15716 -0.000203667 0.365786 9.33479e-05
42 2 4.03062 4.18874 18.232 43284.2 43286.3 15714.5 0.000690395 0.366179 0.000255492
43 2 0 2.7925 20.511 43156.6 43158.9 13508.6 -0.000389382 0.54388 0.000136445
44 2 3.2245 2.7925 22.79 29869.7 29871.8 -82132 0.000160446 0.365971 2.18227e-05
45 2 1.61225 2.7925 25.069 -205991 -205989 7858.55 -8.0132e-06 0.0938841 -5.78183e-06
46 2 2.41837 4.18874 20.511 43156.6 43158.9 13508.6 0.000212488 0.544036 0.000216347
47 2 0.806124 4.18874 22.79 29869.7 29871.8 -82132 -3.31358e-05 0.366016 1.59435e-05
48 2 4.03062 4.18874 25.069 -205991 -205989 7858.55 -0.000600082 0.0936242 -0.000189733
49 2 0 5.58499 0 -205991 -205989 7857.4 -5.19316e-05 0.272231 4.39698e-05
50 2 3.2245 5.58499 2.279 29869.7 29871.8 -82132 -1.06477e-05 0.365825 2.88739e-05
51 2 1.61225 5.58499 4.55799 43157 43159.1 13509.7 2.19244e-09 0.365914 6.82836e-05
52 2 2.41837 6.98124 0 -205991 -205989 7857.4 -4.94314e-05 0.271857 -8.45099e-05
53 2 0.806124 6.98124 2.279 29869.7 29871.8 -82132 4.11292e-06 0.366004 -5.60506e-05
54 2 4.03062 6.98124 4.55799 43157 43159.1 13509.7 7.72713e-05 0.365883 5.07188e-05
55 2 0 5.58499 6.83699 43283.9 43286.2 15713.4 1.1727e-05 0.543913 3.00455e-05
56 2 3.2245 5.58499 9.11598 43284.2 43286.4 15716 -0.000153541 0.365844 -0.00016961
57 2 1.61225 5.58499 11.395 43284.2 43286.4 15716 -2.71899e-06 0.36592 -0.000330558
58 2 2.41837 6.98124 6.83699 43283.9 43286.2 15713.4 -1.30879e-06 0.54401 9.70665e-05
59 2 0.806124 6.98124 9.11598 43284.2 43286.4 15716 9.97806e-05 0.365998 -0.000130371
60 2 4.03062 6.98124 11.395 43284.2 43286.4 15716 0.000132662 0.366225 0.000105958
61 2 0 5.58499 13.674 43283.9 43286.2 15714.8 -0.000289774 0.543719 6.05379e-05
62 2 3.2245 5.58499 15.953 43284.2 43286.4 15716 0.000568061 0.366277 0.000304256
63 2 1.61225 5.58499 18.232 43284.2 43286.3 15714.5 1.76978e-06 0.365908 0.000461622
64 2 2.41837 6.98124 13.674 43283.9 43286.2 15714.8 0.000284215 0.544322 0.000168143
65 2 0.806124 6.98124 15.953 43284.2 43286.4 15716 -0.00027788 0.365721 0.000422514
66 2 4.03062 6.98124 18.232 43284.2 43286.3 15714.5 -0.000976533 0.365075 -0.000496621
67 2 0 5.58499 20.511 43156.6 43158.9 13508.6 0.000253929 0.544306 -3.97387e-05
68 2 3.2245 5.58499 22.79 29869.7 29871.8 -82132 -0.000402306 0.365805 -0.000103795
69 2 1.61225 5.58499 25.069 -205991 -205989 7858.55 -1.54056e-05 0.0938878 -0.000395255
70 2 2.41837 6.98124 20.511 43156.6 43158.9 13508.6 -0.000647309 0.543621 -0.000151366
71 2 0.806124 6.98124 22.79 29869.7 29871.8 -82132 0.000475436 0.366094 -0.000179841
72 2 4.03062 6.98124 25.069 -205991 -205989 7858.55 -0.00170972 0.0944547 0.000342046
73 2 0 8.37749 0 -205991 -205989 7857.4 0.000197382 0.27228 -0.000192021
74 2 3.2245 8.37749 2.279 29869.7 29871.8 -82132 -3.43722e-06 0.365878 -9.42811e-05
75 2 1.61225 8.37749 4.55799 43157 43159.1 13509.7 1.20232e-06 0.365913 -2.40714e-05
76 2 2.41837 9.77373 0 -205991 -205989 7857.4 -0.000130347 0.27188 -0.00026807
77 2 0.806124 9.77373 2.279 29869.7 29871.8 -82132 -1.65729e-06 0.365955 -0.00013598
78 2 4.03062 9.77373 4.55799 43157 43159.1 13509.7 6.70207e-05 0.365851 -0.000115777
79 2 0 8.37749 6.83699 43283.9 43286.2 15713.4 5.24937e-05 0.544151 -2.10285e-05
80 2 3.2245 8.37749 9.11598 43284.2 43286.4 15716 -0.000109118 0.365818 -0.000111155
81 2 1.61225 8.37749 11.395 43284.2 43286.4 15716 -6.819e-06 0.365919 -7.21563e-05
82 2 2.41837 9.77373 6.83699 43283.9 43286.2 15713.4 -5.53324e-05 0.543859 -6.99326e-05
83 2 0.806124 9.77373 9.11598 43284.2 43286.4 15716 2.64519e-06 0.365914 -0.000146628
84 2 4.03062 9.77373 11.395 43284.2 43286.4 15716 0.000702958 0.366904 0.000518799
85 2 0 8.37749 13.674 43283.9 43286.2 15714.8 -0.000602265 0.543351 0.000446591
86 2 3.2245 8.37749 15.953 43284.2 43286.4 15716 -9.51169e-05 0.365672 0.000175876
87 2 1.61225 8.37749 18.232 43284.2 43286.3 15714.5 5.00021e-06 0.365907 9.4109e-05
88 2 2.41837 9.77373 13.674 43283.9 43286.2 15714.8 0.000300763 0.54429 0.000657546
89 2 0.806124 9.77373 15.953 43284.2 43286.4 15716 0.000426241 0.366446 0.000304943
90 2 4.03062 9.77373 18.232 43284.2 43286.3 15714.5 -0.00242409 0.364246 -0.000745427
91 2 0 8.37749 20.511 43156.6 43158.9 13508.6 0.00183236 0.544822 -0.000462447
92 2 3.2245 8.37749 22.79 29869.7 29871.8 -82132 -0.000723171 0.366004 -8.11517e-05
93 2 1.61225 8.37749 25.069 -205991 -205989 7858.55 -5.21331e-07 0.093879 -0.000180664
94 2 2.41837 9.77373 20.511 43156.6 43158.9 13508.6 -0.00118341 0.543611 -0.000726062
95 2 0.806124 9.77373 22.79 29869.7 29871.8 -82132 0.000256084 0.365803 -0.000133371
96 2 4.03062 9.77373 25.069 -205991 -205989 7858.56 0.00249058 0.0951895 0.000475425
97 2 0 11.17 0 -205991 -205989 7857.4 0.000234495 0.272145 -0.00024038
98 2 3.2245 11.17 2.279 29869.7 29871.8 -82132 7.301e-06 0.365973 -0.000111249
99 2 1.61225 11.17 4.55799 43157 43159.1 13509.7 2.62256e-06 0.365913 -8.79264e-05
100 2 2.41837 12.5662 0 -205991 -205989 7857.4 -0.00010026 0.271985 -0.000285218
101 2 0.806124 12.5662 2.279 29869.7 29871.8 -82132 -8.02109e-06 0.365911 -0.00010389
102 2 4.03062 12.5662 4.55799 43157 43159.1 13509.7 -2.95794e-05 0.365685 -0.000199363
103 2 0 11.17 6.83699 43283.9 43286.2 15713.4 0.000120127 0.544327 -0.00017488
104 2 3.2245 11.17 9.11598 43284.2 43286.4 15716 0.000148891 0.366236 3.57575e-05
105 2 1.61225 11.17 11.395 43284.2 43286.4 15716 -2.0198e-06 0.365911 0.000384785
106 2 2.41837 12.5662 6.83699 43283.8 43286.2 15713.4 -7.50586e-05 0.543823 -0.000218106
107 2 0.806124 12.5662 9.11598 43284.2 43286.4 15716 -0.000137892 0.365596 -1.06119e-05
108 2 4.03062 12.5662 11.395 43284.2 43286.4 15716 0.000584978 0.366747 0.000364112
109 2 0 11.17 13.674 43283.9 43286.2 15714.8 3.79716e-05 0.54433 0.000301042
110 2 3.2245 11.17 15.953 43284.2 43286.4 15716 -0.00165499 0.36383 -0.000543366
111 2 1.61225 11.17 18.232 43284.2 43286.3 15714.5 -2.01855e-05 0.365932 -0.00110904
112 2 2.41837 12.5662 13.674 43283.9 43286.2 15714.8 -0.000211085 0.543393 0.000499863
113 2 0.806124 12.5662 15.953 43284.2 43286.3 15716 0.0012545 0.367698 -0.000571947
114 2 4.03062 12.5662 18.232 43284.2 43286.3 15714.5 -0.000111084 0.366551 0.000450905
115 2 0 11.17 20.511 43156.6 43158.9 13508.6 0.000272358 0.543467 -1.84617e-05
116 2 3.2245 11.17 22.79 29869.7 29871.8 -82132 0.000618175 0.366585 0.000171989
117 2 1.61225 11.17 25.069 -205991 -205989 7858.56 3.96519e-05 0.0938978 0.000689923
118 2 2.41837 12.5662 20.511 43156.6 43158.9 13508.6 0.000323553 0.544835 -0.000246726
119 2 0.806124 12.5662 22.79 29869.7 29871.8 -82132 -0.000537951 0.365554 0.000129369
120 2 4.03062 12.5662 25.069 -205991 -205989 7858.55 0.00667244 0.0927183 -0.000796656
121 2 0 13.9625 0 -205991 -205989 7857.4 0.000123147 0.271915 -0.000218091
122 2 3.2245 13.9625 2.279 29869.7 29871.8 -82132 1.73096e-05 0.366026 -7.18044e-05
123 2 1.61225 13.9625 4.55799 43157 43159.1 13509.7 2.65457e-06 0.365915 -7.76593e-05
124 2 2.41837 15.3587 0 -205991 -205989 7857.4 -3.78115e-05 0.27211 -0.000256004
125 2 0.806124 15.3587 2.279 29869.7 29871.8 -82132 -1.0997e-05 0.365894 -5.39464e-05
126 2 4.03062 15.3587 4.55799 43157 43159.1 13509.7 -5.25759e-05 0.36551 -0.000140083
127 2 0 13.9625 6.83699 43283.9 43286.2 15713.4 6.24891e-05 0.54418 -0.000121307
128 2 3.2245 13.9625 9.11598 43284.2 43286.4 15716 0.000308581 0.3668 0.000216021
129 2 1.61225 13.9625 11.395 43284.2 43286.4 15716 1.3606e-05 0.365908 0.000603518
130 2 2.41837 15.3587 6.83699 43283.9 43286.2 15713.4 -2.56517e-05 0.543954 -0.000126403
131 2 0.806124 15.3587 9.11598 43284.2 43286.4 15716 -0.000168951 0.36532 0.000172073
132 2 4.03062 15.3587 11.395 43284.2 43286.3 15716 -9.75348e-05 0.365244 -0.000124427
133 2 0 13.9625 13.674 43283.9 43286.2 15714.8 0.00114803 0.546653 -0.000357695
134 2 3.2245 13.9625 15.953 43284.2 43286.4 15716 -0.00172444 0.363355 -0.000779922
135 2 1.61225 13.9625 18.232 43284.2 43286.3 15714.5 -6.50892e-05 0.36595 -0.00123844
136 2 2.41837 15.3587 13.674 43283.9 43286.2 15714.8 -0.000731889 0.541968 -0.000157809
137 2 0.806124 15.3587 15.953 43284.2 43286.3 15716 0.000958972 0.367742 -0.000978352
138 2 4.03062 15.3587 18.232 43284.2 43286.3 15714.5 0.0022235 0.37034 0.00133951
139 2 0 13.9625 20.511 43156.6 43158.9 13508.6 -0.00219447 0.541237 0.000597114
140 2 3.2245 13.9625 22.79 29869.7 29871.8 -82132 0.00187722 0.366927 0.000280611
141 2 1.61225 13.9625 25.069 -205991 -205989 7858.56 9.32334e-05 0.0938852 0.0008252
142 2 2.41837 15.3587 20.511 43156.6 43159 13508.6 0.00118978 0.545729 0.000293894
143 2 0.806124 15.3587 22.79 29869.7 29871.8 -82132 -0.000610889 0.365612 0.000166849
144 2 4.03062 15.3587 25.069 -205991 -205989 7858.55 0.00252085 0.087425 -0.00186633
145 2 0 16.755 0 -205991 -205989 7857.41 2.59971e-05 0.271704 -0.000183958
146 2 3.2245 16.755 2.279 29869.7 29871.8 -82132 1.83598e-05 0.366034 -3.84704e-05
147 2 1.61225 16.755 4.55799 43157 43159.1 13509.7 1.40892e-06 0.365917 -3.88183e-05
148 2 2.41837 18.1512 0 -205991 -205989 7857.41 -4.48248e-06 0.272202 -0.000170199
149 2 0.806124 18.1512 2.279 29869.7 29871.8 -82132 -7.77407e-06 0.365896 -2.40445e-05
150 2 4.03062 18.1512 4.55799 43157 43159.1 13509.7 -2.17267e-05 0.365431 -5.26741e-05
151 2 0 16.755 6.83699 43283.9 43286.2 15713.4 -3.09911e-05 0.543855 2.18126e-05
152 2 3.2245 16.755 9.11598 43284.2 43286.4 15716 0.000263875 0.367113 0.000267335
153 2 1.61225 16.755 11.395 43284.2 43286.4 15716 2.34331e-05 0.365925 0.000491809
154 2 2.41837 18.1512 6.83699 43283.9 43286.2 15713.4 1.13689e-05 0.544114 -9.39118e-06
155 2 0.806124 18.1512 9.11598 43284.2 43286.4 15716 -0.000102919 0.365208 0.000180502
156 2 4.03062 18.1512 11.395 43284.2 43286.3 15716 -0.000347784 0.363557 -0.00025529
157 2 0 16.755 13.674 43283.9 43286.2 15714.8 0.00127343 0.548368 -0.000578356
158 2 3.2245 16.755 15.953 43284.2 43286.4 15716 -0.000638198 0.364898 -0.000354197
159 2 1.61225 16.755 18.232 43284.2 43286.3 15714.5 -5.61631e-05 0.365898 -0.000456733
160 2 2.41837 18.1512 13.674 43283.9 43286.2 15714.8 -0.000597225 0.541068 -0.000364176
161 2 0.806124 18.1512 15.953 43284.2 43286.4 15716 0.000282504 0.366735 -0.000548058
162 2 4.03062 18.1512 18.232 43284.2 43286.3 15714.5 0.00244141 0.374394 0.00120795
163 2 0 16.755 20.511 43156.6 43158.9 13508.6 -0.00276406 0.539402 0.00065224
164 2 3.2245 16.755 22.79 29869.7 29871.8 -82132 0.00195157 0.366495 0.000145986
165 2 1.61225 16.755 25.069 -205991 -205989 7858.56 7.80954e-05 0.0937583 0.000321124
166 2 2.41837 18.1512 20.511 43156.7 43159 13508.6 0.000852578 0.545992 0.000297508
167 2 0.806124 18.1512 22.79 29869.7 29871.8 -82132 -0.000416508 0.365731 0.000117634
168 2 4.03062 18.1512 25.069 -205991 -205989 7858.55 -0.00212108 0.0844792 -0.00121152
169 2 0 19.5475 0 -205991 -205989 7857.41 -1.69189e-06 0.271584 -7.86799e-05
170 2 3.2245 19.5475 2.279 29869.7 29871.8 -82132 7.80327e-06 0.366027 -1.34587e-05
171 2 1.61225 19.5475 4.55799 43157 43159.1 13509.7 3.32641e-07 0.365918 -1.07189e-05
172 2 2.41837 20.9437 0 -205991 -205989 7857.41 -9.94209e-09 0.272235 -2.80145e-07
173 2 0.806124 20.9437 2.279 29869.7 29871.8 -82132 -2.02191e-08 0.365898 -3.39218e-08
174 2 4.03062 20.9437 4.55799 43157 43159.1 13509.7 -2.07672e-08 0.365418 -5.54199e-08
175 2 0 19.5475 6.83699 43283.9 43286.2 15713.4 -3.07367e-05 0.54362 3.6998e-05
176 2 3.2245 19.5475 9.11598 43284.2 43286.4 15716 9.88082e-05 0.367179 0.000120942
177 2 1.61225 19.5475 11.395 43284.2 43286.4 15716 1.1744e-05 0.365949 0.00018061
178 2 2.41837 20.9437 6.83699 43283.9 43286.2 15713.4 3.17446e-08 0.544181 2.53044e-08
179 2 0.806124 20.9437 9.11598 43284.2 43286.4 15716 -1.53227e-07 0.365189 2.94852e-07
180 2 4.03062 20.9437 11.395 43284.2 43286.3 15716 -6.23626e-07 0.362897 -4.36295e-07
181 2 0 19.5475 13.674 43283.9 43286.2 15714.8 0.000489945 0.54879 -0.000238619
182 2 3.2245 19.5475 15.953 43284.2 43286.4 15716 -7.89177e-05 0.366186 -6.07693e-05
183 2 1.61225 19.5475 18.232 43284.2 43286.3 15714.5 -1.89694e-05 0.365841 -6.26585e-05
184 2 2.41837 20.9437 13.674 43283.9 43286.2 15714.8 -9.00482e-07 0.540849 -6.28315e-07
185 2 0.806124 20.9437 15.953 43284.2 43286.4 15716 2.28013e-07 0.366222 -7.07456e-07
186 2 4.03062 20.9437 18.232 43284.2 43286.3 15714.5 4.08451e-06 0.376118 1.91668e-06
187 2 0 19.5475 20.511 43156.6 43158.9 13508.6 -0.00117328 0.538707 0.000242313
188 2 3.2245 19.5475 22.79 29869.7 29871.8 -82132 0.000632865 0.365365 -1.09255e-05
189 2 1.61225 19.5475 25.069 -205991 -205989 7858.56 2.29511e-05 0.0936051 1.32809e-05
190 2 2.41837 20.9437 20.511 43156.7 43159 13508.6 1.25264e-06 0.546053 4.6303e-07
191 2 0.806124 20.9437 22.79 29869.7 29871.8 -82132 -6.29716e-07 0.365852 1.70919e-07
192 2 4.03062 20.9437 25.069 -205991 -205989 7858.55 -4.51697e-06 0.0842314 -1.59366e-06
385 2 4.83674 0 0 -205991 -205989 7857.4 0.000250723 0.272204 9.29151e-05
386 2 8.06124 0 2.279 29869.7 29871.8 -82132 -1.88778e-07 0.366023 -0.000105296
387 2 6.44899 0 4.55799 43157 43159.1 13509.7 -0.00012249 0.365983 -3.74529e-05
388 2 7.25512 1.39625 0 -205991 -205989 7857.4 0.000411064 0.272021 -0.000114101
389 2 5.64287 1.39625 2.279 29869.7 29871.8 -82132 -8.03485e-06 0.365975 -1.32318e-05
390 2 8.86736 1.39625 4.55799 43157 43159.1 13509.7 -3.70215e-05 0.365992 -9.39216e-05
391 2 4.83674 0 6.83699 43283.9 43286.2 15713.4 -9.80243e-05 0.543841 -2.40561e-05
392 2 8.06124 0 9.11598 43284.2 43286.4 15716 -7.14661e-05 0.365764 2.75188e-05
393 2 6.44899 0 11.395 43284.2 43286.4 15716 -2.0768e-05 0.365768 -0.000117799
394 2 7.25512 1.39625 6.83699 43283.9 43286.2 15713.4 -0.000152877 0.543966 0.000140872
395 2 5.64287 1.39625 9.11598 43284.2 43286.4 15716 8.23716e-06 0.365809 -3.72356e-05
396 2 8.86736 1.39625 11.395 43284.2 43286.4 15716 -9.88354e-05 0.365835 -8.88938e-06
397 2 4.83674 0 13.674 43283.9 43286.2 15714.8 -4.26239e-05 0.543999 -8.95255e-05
398 2 8.06124 0 15.953 43284.2 43286.4 15716 0.000314376 0.366052 0.000224893
399 2 6.44899 0 18.232 43284.2 43286.3 15714.5 0.000324104 0.366084 0.000230214
400 2 7.25512 1.39625 13.674 43283.9 43286.2 15714.8 0.000171582 0.544105 5.98421e-05
401 2 5.64287 1.39625 15.953 43284.2 43286.4 15716 0.000175352 0.366047 0.000141927
402 2 8.86736 1.39625 18.232 43284.2 43286.3 15714.5 0.00023731 0.365911 -3.28996e-05
403 2 4.83674 0 20.511 43156.6 43158.9 13508.6 0.000171372 0.544088 0.000114184
404 2 8.06124 0 22.79 29869.7 29871.8 -82132 1.37112e-05 0.365973 -8.42142e-05
405 2 6.44899 0 25.069 -205991 -205989 7858.55 0.000253182 0.0938454 -0.000188813
406 2 7.25512 1.39625 20.511 43156.6 43158.9 13508.6 0.000163376 0.543978 -4.92587e-05
407 2 5.64287 1.39625 22.79 29869.7 29871.8 -82132 0.000136417 0.365964 -2.67162e-05
408 2 8.86736 1.39625 25.069 -205991 -205989 7858.55 -0.00105602 0.0939148 -9.33349e-05
409 2 4.83674 2.7925 0 -205991 -205989 7857.4 0.000437096 0.271935 0.000118734
410 2 8.06124 2.7925 2.279 29869.7 29871.8 -82132 2.57249e-05 0.365913 -0.000144451
411 2 6.44899 2.7925 4.55799 43157 43159.1 13509.7 -0.000174326 0.365894 6.61925e-06
412 2 7.25512 4.18874 0 -205991 -205989 7857.4 0.000345475 0.271777 -0.00016746
413 2 5.64287 4.18874 2.279 29869.7 29871.8 -82132 2.84325e-06 0.365794 6.77458e-06
414 2 8.86736 4.18874 4.55799 43157 43159.1 13509.7 -5.00205e-05 0.365846 -0.000127609
415 2 4.83674 2.7925 6.83699 43283.9 43286.2 15713.4 -0.00015801 0.544091 -3.22605e-05
416 2 8.06124 2.7925 9.11598 43284.2 43286.4 15716 -0.000216693 0.365741 -7.71232e-05
417 2 6.44899 2.7925 11.395 43284.2 43286.4 15716 -8.06696e-06 0.365836 -0.000109613
418 2 7.25512 4.18874 6.83699 43283.9 43286.2 15713.4 -0.00029467 0.543921 -0.000127871
419 2 5.64287 4.18874 9.11598 43284.2 43286.4 15716 -0.000193763 0.365872 -0.000249426
420 2 8.86736 4.18874 11.395 43284.2 43286.4 15716 0.000508262 0.366396 0.0006925
421 2 4.83674 2.7925 13.674 43283.9 43286.2 15714.8 8.33665e-05 0.543987 2.56232e-05
422 2 8.06124 2.7925 15.953 43284.2 43286.4 15716 0.000396287 0.366104 0.00019922
423 2 6.44899 2.7925 18.232 43284.2 43286.3 15714.5 0.000337864 0.366002 9.69756e-05
424 2 7.25512 4.18874 13.674 43283.9 43286.2 15714.8 0.000654332 0.544458 0.000569693
425 2 5.64287 4.18874 15.953 43284.2 43286.4 15716 0.000571569 0.366193 0.000353964
426 2 8.86736 4.18874 18.232 43284.2 43286.3 15714.5 -0.00195187 0.365001 -0.00134937
427 2 4.83674 2.7925 20.511 43156.6 43158.9 13508.6 0.000352803 0.544083 4.01893e-05
428 2 8.06124 2.7925 22.79 29869.7 29871.8 -82132 -0.000558672 0.365892 -0.00013225
429 2 6.44899 2.7925 25.069 -205991 -205989 7858.55 -0.000958685 0.0938143 -0.000139035
430 2 7.25512 4.18874 20.511 43156.6 43158.9 13508.6 -0.00140089 0.543521 -0.000664491
431 2 5.64287 4.18874 22.79 29869.7 29871.8 -82132 -0.000521431 0.365841 -0.000164828
432 2 8.86736 4.18874 25.069 -205991 -205989 7858.56 0.00156697 0.094549 0.00092306
433 2 4.83674 5.58499 0 -205991 -205989 7857.4 0.000106248 0.271661 -5.34926e-05
434 2 8.06124 5.58499 2.279 29869.7 29871.8 -82132 5.00901e-05 0.365839 -6.80173e-06
435 2 6.44899 5.58499 4.55799 43157 43159.1 13509.7 -2.90067e-05 0.365758 7.00728e-05
436 2 7.25512 6.98124 0 -205991 -205989 7857.41 -3.44775e-05 0.271774 -8.6061e-05
437 2 5.64287 6.98124 2.279 29869.7 29871.8 -82132 5.27278e-06 0.365768 1.67292e-05
438 2 8.86736 6.98124 4.55799 43157 43159.1 13509.7 -0.000101269 0.365522 -0.000198259
439 2 4.83674 5.58499 6.83699 43283.9 43286.2 15713.4 -9.2062e-05 0.544074 -7.67915e-05
440 2 8.06124 5.58499 9.11598 43284.2 43286.4 15716 5.66301e-05 0.366161 0.000153672
441 2 6.44899 5.58499 11.395 43284.2 43286.4 15716 0.000365291 0.366399 0.000410649
442 2 7.25512 6.98124 6.83699 43283.9 43286.2 15713.4 -0.000178095 0.543827 -0.000259177
443 2 5.64287 6.98124 9.11598 43284.2 43286.4 15716 -5.64711e-05 0.366022 -4.47495e-05
444 2 8.86736 6.98124 11.395 43284.2 43286.3 15716 0.000294982 0.36612 0.000122043
445 2 4.83674 5.58499 13.674 43283.9 43286.2 15714.8 0.00056911 0.544514 0.000440586
446 2 8.06124 5.58499 15.953 43284.2 43286.4 15716 -0.00164437 0.364701 -0.00142422
447 2 6.44899 5.58499 18.232 43284.2 43286.3 15714.5 -0.00178534 0.364845 -0.00120063
448 2 7.25512 6.98124 13.674 43283.9 43286.2 15714.8 -0.000609145 0.543276 -0.000708435
449 2 5.64287 6.98124 15.953 43284.2 43286.4 15716 -0.00086163 0.365105 -0.000807697
450 2 8.86736 6.98124 18.232 43284.2 43286.3 15714.5 0.00166993 0.367449 0.00174755
451 2 4.83674 5.58499 20.511 43156.6 43158.9 13508.6 -0.00107864 0.543433 -0.000529977
452 2 8.06124 5.58499 22.79 29869.7 29871.8 -82132 0.000778914 0.366327 0.000424823
453 2 6.44899 5.58499 25.069 -205991 -205989 7858.56 0.000213883 0.0946107 0.000836302
454 2 7.25512 6.98124 20.511 43156.6 43159 13508.6 0.00125983 0.545001 0.000987332
455 2 5.64287 6.98124 22.79 29869.7 29871.8 -82132 3.6238e-05 0.366179 0.00021467
456 2 8.86736 6.98124 25.069 -205991 -205989 7858.55 0.00500195 0.0917094 -0.0024636
457 2 4.83674 8.37749 0 -205991 -205989 7857.4 -0.00028893 0.27163 -0.000147525
458 2 8.06124 8.37749 2.279 29869.7 29871.8 -82132 9.31344e-06 0.365819 5.53442e-05
459 2 6.44899 8.37749 4.55799 43157 43159.1 13509.7 1.45843e-06 0.365606 -0.000101932
460 2 7.25512 9.77373 0 -205991 -205989 7857.41 -0.000265771 0.271983 8.46292e-05
461 2 5.64287 9.77373 2.279 29869.7 29871.8 -82132 -8.77559e-06 0.365866 -1.33107e-05
462 2 8.86736 9.77373 4.55799 43157 43159.1 13509.7 -0.000112322 0.365455 -0.000199008
463 2 4.83674 8.37749 6.83699 43283.9 43286.2 15713.4 -8.51105e-05 0.5438 -0.000182777
464 2 8.06124 8.37749 9.11598 43284.2 43286.4 15716 0.000582043 0.366796 0.000709417
465 2 6.44899 8.37749 11.395 43284.2 43286.4 15716 0.000595249 0.366613 0.000579871
466 2 7.25512 9.77373 6.83699 43283.9 43286.2 15713.4 0.000164215 0.544252 0.000128198
467 2 5.64287 9.77373 9.11598 43284.2 43286.4 15716 0.000376834 0.366545 0.000458905
468 2 8.86736 9.77373 11.395 43284.2 43286.3 15716 -0.00171086 0.363172 -0.00255308
469 2 4.83674 8.37749 13.674 43283.9 43286.2 15714.8 0.00039286 0.544337 0.000128565
470 2 8.06124 8.37749 15.953 43284.2 43286.4 15716 -0.00073787 0.365679 -0.000299563
471 2 6.44899 8.37749 18.232 43284.2 43286.3 15714.5 -0.000393272 0.366179 0.000138422
472 2 7.25512 9.77373 13.674 43283.9 43286.2 15714.8 -0.00238144 0.541165 -0.00235947
473 2 5.64287 9.77373 15.953 43284.2 43286.4 15716 -0.00185446 0.364263 -0.00125736
474 2 8.86736 9.77373 18.232 43284.2 43286.3 15714.5 0.0105276 0.373355 0.0070671
475 2 4.83674 8.37749 20.511 43156.6 43158.9 13508.6 -0.000892929 0.543948 6.50678e-05
476 2 8.06124 8.37749 22.79 29869.7 29871.8 -82132 0.00322289 0.365797 -7.87946e-05
477 2 6.44899 8.37749 25.069 -205991 -205989 7858.55 0.00619318 0.0933149 -0.000355918
478 2 7.25512 9.77373 20.511 43156.6 43158.9 13508.6 0.00715525 0.547365 0.00291145
479 2 5.64287 9.77373 22.79 29869.7 29871.8 -82132 0.00210125 0.366611 0.00051099
480 2 8.86736 9.77373 25.069 -205991 -205989 7858.55 -0.0233687 0.0901822 -0.00383333
481 2 4.83674 11.17 0 -205991 -205989 7857.41 -0.000356222 0.271852 -9.17053e-05
482 2 8.06124 11.17 2.279 29869.7 29871.8 -82132 -5.41599e-05 0.36578 -2.27611e-05
483 2 6.44899 11.17 4.55799 43157 43159.1 13509.7 -6.78249e-05 0.365533 -0.000286791
484 2 7.25512 12.5662 0 -205991 -205989 7857.41 -0.00020703 0.272196 0.000178673
485 2 5.64287 12.5662 2.279 29869.7 29871.8 -82132 -9.85113e-06 0.365942 -5.08507e-05
486 2 8.86736 12.5662 4.55799 43157 43159.1 13509.7 1.064e-05 0.365841 -4.87943e-06
487 2 4.83674 11.17 6.83699 43283.9 43286.2 15713.4 -6.06419e-05 0.543815 -0.000122408
488 2 8.06124 11.17 9.11598 43284.2 43286.4 15716 0.000447894 0.366471 0.00042072
489 2 6.44899 11.17 11.395 43284.2 43286.3 15716 -0.000440845 0.364719 -0.000738853
490 2 7.25512 12.5662 6.83699 43283.9 43286.2 15713.4 0.000417261 0.545021 0.000534333
491 2 5.64287 12.5662 9.11598 43284.2 43286.4 15716 0.000554232 0.367058 0.000630099
492 2 8.86736 12.5662 11.395 43284.2 43286.4 15716 -0.00172405 0.362737 -0.00215797
493 2 4.83674 11.17 13.674 43283.9 43286.2 15714.8 -0.00115415 0.542026 -0.0011523
494 2 8.06124 11.17 15.953 43284.3 43286.4 15716 0.00273976 0.36948 0.00263523
495 2 6.44899 11.17 18.232 43284.2 43286.3 15714.5 0.00439001 0.370342 0.00305582
496 2 7.25512 12.5662 13.674 43283.9 43286.2 15714.9 -0.0005932 0.543487 -0.000383992
497 2 5.64287 12.5662 15.953 43284.3 43286.4 15716 5.90165e-05 0.366372 0.000319884
498 2 8.86736 12.5662 18.232 43284.1 43286.3 15714.4 -0.010751 0.344457 -0.0140464
499 2 4.83674 11.17 20.511 43156.6 43159 13508.6 0.00237178 0.546088 0.00134836
500 2 8.06124 11.17 22.79 29869.6 29871.7 -82132 -0.0149247 0.357468 -0.00648761
501 2 6.44899 11.17 25.069 -205991 -205989 7858.55 -0.00365235 0.0878643 -0.00415112
502 2 7.25512 12.5662 20.511 43156.6 43158.9 13508.5 -0.00702961 0.531692 -0.00702985
503 2 5.64287 12.5662 22.79 29869.6 29871.8 -82132 0.00149585 0.363899 -0.00113015
504 2 8.86736 12.5662 25.069 -205991 -205989 7858.58 -0.00625187 0.0992092 0.00357228
505 2 4.83674 13.9625 0 -205991 -205989 7857.41 -0.000188822 0.272178 -5.02945e-05
506 2 8.06124 13.9625 2.279 29869.7 29871.8 -82132 -5.40155e-05 0.365724 -8.45177e-05
507 2 6.44899 13.9625 4.55799 43157 43159.1 13509.7 -3.92685e-05 0.365626 -0.000215206
508 2 7.25512 15.3587 0 -205991 -205989 7857.4 -5.46348e-05 0.272317 0.000124615
509 2 5.64287 15.3587 2.279 29869.7 29871.8 -82132 6.18357e-06 0.365946 -6.07542e-05
510 2 8.86736 15.3587 4.55799 43157 43159.1 13509.7 0.000144779 0.366372 0.000194712
511 2 4.83674 13.9625 6.83699 43283.9 43286.2 15713.4 6.23739e-05 0.544243 0.000106787
512 2 8.06124 13.9625 9.11598 43284.2 43286.3 15716 -0.000476359 0.364218 -0.000851876
513 2 6.44899 13.9625 11.395 43284.2 43286.3 15716 -0.00158777 0.361955 -0.00191438
514 2 7.25512 15.3587 6.83699 43283.9 43286.2 15713.4 0.000437819 0.545541 0.000589646
515 2 5.64287 15.3587 9.11598 43284.2 43286.4 15716 0.000314695 0.366832 0.000322979
516 2 8.86736 15.3587 11.395 43284.3 43286.4 15716 -0.000260903 0.365645 -0.000139225
517 2 4.83674 13.9625 13.674 43283.9 43286.2 15714.8 -0.00176606 0.540457 -0.00135274
518 2 8.06124 13.9625 15.953 43284.2 43286.3 15716 0.00971895 0.380229 0.00787902
519 2 6.44899 13.9625 18.232 43284.2 43286.3 15714.5 0.00923629 0.375368 0.00508682
520 2 7.25512 15.3587 13.674 43283.9 43286.2 15714.9 0.000716247 0.546298 0.00088654
521 2 5.64287 15.3587 15.953 43284.3 43286.4 15716 0.00120082 0.368699 0.00112077
522 2 8.86736 15.3587 18.232 43284.1 43286.3 15714.4 -0.0404168 0.294035 -0.0329595
523 2 4.83674 13.9625 20.511 43156.6 43158.9 13508.6 0.00612042 0.548769 0.00203678
524 2 8.06124 13.9625 22.79 29869.7 29871.8 -82131.9 0.00813696 0.36806 0.00122206
525 2 6.44899 13.9625 25.069 -205991 -205989 7858.55 -0.0235914 0.0911964 -0.00156587
526 2 7.25512 15.3587 20.511 43156.5 43158.9 13508.5 -0.026776 0.509199 -0.0140352
527 2 5.64287 15.3587 22.79 29869.6 29871.7 -82132 -0.00956527 0.355463 -0.00391635
528 2 8.86736 15.3587 25.069 -205991 -205989 7858.6 -0.00241702 0.0922487 -0.000753207
529 2 4.83674 16.755 0 -205991 -205989 7857.41 -3.92237e-05 0.272461 -6.41972e-05
530 2 8.06124 16.755 2.279 29869.7 29871.8 -82132 -1.6155e-05 0.36571 -6.51592e-05
531 2 6.44899 16.755 4.55799 43157 43159.1 13509.7 3.45942e-05 0.36582 -5.08146e-05
532 2 7.25512 18.1512 0 -205991 -205989 7857.4 1.50579e-05 0.27237 3.27949e-05
533 2 5.64287 18.1512 2.279 29869.7 29871.8 -82132 1.22733e-05 0.365927 -4.00889e-05
534 2 8.86736 18.1512 4.55799 43157 43159.1 13509.7 0.000141676 0.366758 0.000193785
535 2 4.83674 16.755 6.83699 43283.9 43286.2 15713.4 0.000150312 0.544749 0.000235322
536 2 8.06124 16.755 9.11598 43284.2 43286.3 15716 -0.000853671 0.361768 -0.00128965
537 2 6.44899 16.755 11.395 43284.2 43286.4 15716 -0.00122452 0.361475 -0.00133655
538 2 7.25512 18.1512 6.83699 43283.9 43286.2 15713.4 0.000263629 0.545582 0.00034423
539 2 5.64287 18.1512 9.11598 43284.2 43286.3 15716 5.03706e-05 0.365994 2.33821e-05
540 2 8.86736 18.1512 11.395 43284.3 43286.4 15716 0.000107985 0.366983 0.000229326
541 2 4.83674 16.755 13.674 43283.9 43286.2 15714.9 -0.000916589 0.541418 -0.000535676
542 2 8.06124 16.755 15.953 43284.2 43286.3 15715.9 0.00621796 0.373245 0.00290209
543 2 6.44899 16.755 18.232 43284.2 43286.3 15714.5 0.00139322 0.359763 -0.000947852
544 2 7.25512 18.1512 13.674 43283.9 43286.2 15714.9 0.000937438 0.549277 0.00104463
545 2 5.64287 18.1512 15.953 43284.3 43286.4 15716 0.00159618 0.372624 0.00134481
546 2 8.86736 18.1512 18.232 43284.2 43286.4 15714.6 -0.00339266 0.355439 -0.00244649