3074
 Atoms. Timestep: 100
Pt 0 0 0
Pt 3.22449 44.6799 2.28147
Pt 1.61225 44.6799 4.56006
Pt 2.41837 1.39625 0
Pt 0.806124 1.39625 2.28147
Pt 4.03061 1.39624 4.56006
Pt 38.6939 44.6799 6.83856
Pt 3.22448 44.6799 9.11707
Pt 1.61223 44.6799 11.3956
Pt 2.41837 1.39624 6.83856
Pt 0.806116 1.39624 9.11708
Pt 4.03059 1.39623 11.3956
Pt 38.6939 44.6799 13.6742
Pt 3.22445 44.6799 15.9527
Pt 1.61221 44.6799 18.2312
Pt 2.41834 1.39623 13.6741
Pt 0.80609 1.39622 15.9527
Pt 4.03056 1.3962 18.2312
Pt 38.6939 44.6799 20.5097
Pt 3.22448 44.6799 22.7883
Pt 1.61225 44.6799 25.0698
Pt 2.41833 1.3962 20.5097
Pt 0.8061 1.39621 22.7883
Pt 4.03062 1.3962 25.0698
Pt 0 2.7925 0
Pt 3.22449 2.79249 2.28147
Pt 1.61225 2.79249 4.56006
Pt 2.41837 4.18874 0
Pt 0.806124 4.18874 2.28147
Pt 4.03061 4.18874 4.56006
Pt -2.11349e-06 2.79249 6.83856
Pt 3.22448 2.79248 9.11707
Pt 1.61223 2.79248 11.3956
Pt 2.41836 4.18874 6.83855
Pt 0.806117 4.18874 9.11708
Pt 4.03059 4.18871 11.3956
Pt 38.6939 2.79248 13.6741
Pt 3.22444 2.79244 15.9527
Pt 1.61219 2.79244 18.2312
Pt 2.41833 4.18871 13.6741
Pt 0.806083 4.1887 15.9527
Pt 4.03053 4.18864 18.2312
Pt 38.6939 2.79244 20.5097
Pt 3.22446 2.79242 22.7883
Pt 1.61224 2.79242 25.0698
Pt 2.41829 4.18865 20.5097
Pt 0.80607 4.18865 22.7883
Pt 4.03061 4.18863 25.0698
Pt 0 5.58499 0
Pt 3.22449 5.58499 2.28147
Pt 1.61225 5.58499 4.56006
Pt 2.41837 6.98124 0
Pt 0.806124 6.98124 2.28147
Pt 4.03061 6.98123 4.56006
Pt -1.33566e-06 5.58499 6.83856
Pt 3.22448 5.58498 9.11707
Pt 1.61223 5.58497 11.3956
Pt 2.41837 6.98123 6.83855
Pt 0.806118 6.98123 9.11708
Pt 4.03059 6.9812 11.3956
Pt 38.6939 5.58497 13.6741
Pt 3.22443 5.58492 15.9527
Pt 1.61217 5.58491 18.2312
Pt 2.41834 6.9812 13.6741
Pt 0.806078 6.9812 15.9527
Pt 4.0305 6.9811 18.2312
Pt 38.6939 5.58491 20.5097
Pt 3.22442 5.58485 22.7883
Pt 1.61221 5.58485 25.0698
Pt 2.41826 6.9811 20.5097
Pt 0.806042 6.98108 22.7884
Pt 4.03058 6.98105 25.0698
Pt 0 8.37749 0
Pt 3.22449 8.37749 2.28147
Pt 1.61225 8.37749 4.56006
Pt 2.41837 9.77373 0
Pt 0.806124 9.77373 2.28147
Pt 4.03061 9.77373 4.56006
Pt 38.6939 8.37748 6.83856
Pt 3.22448 8.37747 9.11707
Pt 1.61223 8.37747 11.3956
Pt 2.41837 9.77373 6.83856
Pt 0.806121 9.77373 9.11708
Pt 4.0306 9.77371 11.3956
Pt -1.95084e-05 8.37747 13.6742
Pt 3.22442 8.37741 15.9527
Pt 1.61216 8.37739 18.2312
Pt 2.41835 9.7737 13.6741
Pt 0.806089 9.7737 15.9527
Pt 4.0305 9.77356 18.2312
Pt 38.6939 8.37736 20.5097
Pt 3.22437 8.37726 22.7883
Pt 1.61218 8.37726 25.0699
Pt 2.41825 9.77354 20.5097
Pt 0.806028 9.77351 22.7884
Pt 4.0305 9.77345 25.0698
Pt 0 11.17 0
Pt 3.22449 11.17 2.28147
Pt 1.61225 11.17 4.56006
Pt 2.41837 12.5662 0
Pt 0.806126 12.5662 2.28147
Pt 4.03062 12.5662 4.56006
Pt 38.694 11.17 6.83856
Pt 3.22449 11.17 9.11707
Pt 1.61224 11.17 11.3956
Pt 2.41837 12.5662 6.83855
Pt 0.806124 12.5662 9.11708
Pt 4.03062 12.5662 11.3956
Pt -9.23631e-06 11.17 13.6742
Pt 3.22446 11.1699 15.9527
Pt 1.61221 11.1699 18.2312
Pt 2.41838 12.5662 13.6741
Pt 0.806146 12.5662 15.9527
Pt 4.03058 12.5661 18.2312
Pt -3.15167e-05 11.1698 20.5098
Pt 3.22434 11.1697 22.7884
Pt 1.61215 11.1697 25.0699
Pt 2.41835 12.566 20.5097
Pt 0.806119 12.5659 22.7884
Pt 4.03035 12.5659 25.0698
Pt 0 13.9625 0
Pt 3.2245 13.9625 2.28147
Pt 1.61225 13.9625 4.56005
Pt 2.41837 15.3587 0
Pt 0.806132 15.3587 2.28146
Pt 4.03062 15.3587 4.56005
Pt 8.62239e-06 13.9625 6.83855
Pt 3.2245 13.9625 9.11707
Pt 1.61227 13.9625 11.3956
Pt 2.41838 15.3587 6.83854
Pt 0.806149 15.3587 9.11705
Pt 4.03066 15.3587 11.3956
Pt 4.16894e-05 13.9625 13.6741
Pt 3.22455 13.9624 15.9527
Pt 1.61236 13.9624 18.2312
Pt 2.41846 15.3587 13.6741
Pt 0.806311 15.3587 15.9526
Pt 4.03073 15.3586 18.2312
Pt 0.000170313 13.9623 20.5097
Pt 3.22438 13.9622 22.7883
Pt 1.61214 13.9621 25.0699
Pt 2.41852 15.3585 20.5097
Pt 0.806296 15.3584 22.7883
Pt 4.03021 15.3584 25.0698
Pt 0 16.755 0
Pt 3.2245 16.755 2.28146
Pt 1.61227 16.755 4.56004
Pt 2.41837 18.1512 0
Pt 0.806142 18.1512 2.28145
Pt 4.03063 18.1512 4.56004
Pt 3.40548e-05 16.755 6.83851
Pt 3.22453 16.755 9.11704
Pt 1.61233 16.755 11.3956
Pt 2.41841 18.1512 6.83851
Pt 0.806198 18.1512 9.11699
Pt 4.03071 18.1512 11.3956
Pt 0.00018075 16.755 13.674
Pt 3.2247 16.7549 15.9526
Pt 1.61259 16.7549 18.2311
Pt 2.41857 18.1512 13.674
Pt 0.806508 18.1512 15.9525
Pt 4.0309 18.1511 18.2311
Pt 0.000488844 16.7548 20.5096
Pt 3.22449 16.7547 22.7883
Pt 1.61216 16.7547 25.0698
Pt 2.41872 18.1511 20.5096
Pt 0.806499 18.151 22.7882
Pt 4.03013 18.151 25.0698
Pt 0 19.5475 0
Pt 3.22451 19.5475 2.28145
Pt 1.61228 19.5475 4.56002
Pt 2.41837 20.9437 0
Pt 0.806146 20.9437 2.28145
Pt 4.03064 20.9437 4.56003
Pt 6.13183e-05 19.5475 6.83847
Pt 3.22457 19.5475 9.117
Pt 1.61239 19.5475 11.3955
Pt 2.41842 20.9437 6.83849
Pt 0.806222 20.9437 9.11696
Pt 4.03074 20.9437 11.3955
Pt 0.000306123 19.5475 13.6739
Pt 3.22482 19.5475 15.9526
Pt 1.61278 19.5474 18.231
Pt 2.41862 20.9437 13.674
Pt 0.806594 20.9437 15.9525
Pt 4.03099 20.9437 18.2311
Pt 0.000728297 19.5474 20.5095
Pt 3.22457 19.5474 22.7882
Pt 1.61219 19.5474 25.0697
Pt 2.41882 20.9437 20.5096
Pt 0.806601 20.9437 22.7881
Pt 4.03009 20.9437 25.0698
Pt 0 22.34 0
Pt 3.22451 22.34 2.28145
Pt 1.61228 22.34 4.56001
Pt 2.41837 23.7362 0
Pt 0.806142 23.7362 2.28145
Pt 4.03064 23.7362 4.56004
Pt 6.15979e-05 22.34 6.83847
Pt 3.22457 22.34 9.117
Pt 1.61239 22.34 11.3955
Pt 2.41841 23.7362 6.8385
Pt 0.806199 23.7362 9.11699
Pt 4.03071 23.7362 11.3956
Pt 0.000306872 22.34 13.6739
Pt 3.22482 22.34 15.9526
Pt 1.61278 22.34 18.231
Pt 2.41857 23.7362 13.674
Pt 0.806509 23.7362 15.9525
Pt 4.0309 23.7363 18.2311
Pt 0.000729928 22.34 20.5095
Pt 3.22457 22.3401 22.7882
Pt 1.61219 22.3401 25.0697
Pt 2.41872 23.7363 20.5096
Pt 0.806501 23.7364 22.7882
Pt 4.03012 23.7364 25.0698
Pt 0 25.1325 0
Pt 3.2245 25.1325 2.28146
Pt 1.61227 25.1325 4.56004
Pt 2.41837 26.5287 0
Pt 0.806132 26.5287 2.28146
Pt 4.03062 26.5287 4.56005
Pt 3.46348e-05 25.1325 6.83851
Pt 3.22453 25.1325 9.11704
Pt 1.61233 25.1325 11.3956
Pt 2.41838 26.5287 6.83854
Pt 0.806149 26.5287 9.11705
Pt 4.03066 26.5287 11.3956
Pt 0.000182495 25.1325 13.674
Pt 3.2247 25.1325 15.9526
Pt 1.61259 25.1325 18.2311
Pt 2.41846 26.5287 13.6741
Pt 0.806314 26.5287 15.9526
Pt 4.03073 26.5288 18.2312
Pt 0.000492787 25.1326 20.5096
Pt 3.22449 25.1327 22.7883
Pt 1.61216 25.1327 25.0698
Pt 2.41852 26.5289 20.5097
Pt 0.806298 26.529 22.7883
Pt 4.03021 26.5291 25.0698
Pt 0 27.925 0
Pt 3.2245 27.925 2.28147
Pt 1.61225 27.925 4.56005
Pt 2.41837 29.3212 0
Pt 0.806126 29.3212 2.28147
Pt 4.03062 29.3212 4.56006
Pt 8.99642e-06 27.925 6.83855
Pt 3.2245 27.925 9.11707
Pt 1.61227 27.925 11.3956
Pt 2.41837 29.3212 6.83855
Pt 0.806124 29.3212 9.11708
Pt 4.03062 29.3212 11.3956
Pt 4.31963e-05 27.925 13.6741
Pt 3.22455 27.925 15.9527
Pt 1.61236 27.9251 18.2312
Pt 2.41838 29.3212 13.6741
Pt 0.806147 29.3212 15.9527
Pt 4.03058 29.3214 18.2312
Pt 0.000174378 27.9252 20.5097
Pt 3.22438 27.9253 22.7883
Pt 1.61214 27.9253 25.0699
Pt 2.41835 29.3214 20.5097
Pt 0.80612 29.3215 22.7884
Pt 4.03035 29.3216 25.0698
Pt 0 30.7174 0
Pt 3.22449 30.7174 2.28147
Pt 1.61225 30.7175 4.56006
Pt 2.41837 32.1137 0
Pt 0.806124 32.1137 2.28147
Pt 4.03061 32.1137 4.56006
Pt 38.694 30.7175 6.83856
Pt 3.22449 30.7175 9.11707
Pt 1.61224 30.7175 11.3956
Pt 2.41837 32.1137 6.83856
Pt 0.806121 32.1137 9.11708
Pt 4.0306 32.1137 11.3956
Pt -8.49101e-06 30.7175 13.6742
Pt 3.22446 30.7175 15.9527
Pt 1.61221 30.7175 18.2312
Pt 2.41835 32.1137 13.6741
Pt 0.80609 32.1137 15.9527
Pt 4.03049 32.1139 18.2312
Pt -2.89284e-05 30.7176 20.5098
Pt 3.22433 30.7178 22.7884
Pt 1.61215 30.7178 25.0699
Pt 2.41825 32.1139 20.5097
Pt 0.806029 32.1139 22.7884
Pt 4.0305 32.114 25.0698
Pt 0 33.5099 0
Pt 3.22449 33.5099 2.28147
Pt 1.61225 33.5099 4.56006
Pt 2.41837 34.9062 0
Pt 0.806124 34.9062 2.28147
Pt 4.03061 34.9062 4.56006
Pt 38.6939 33.5099 6.83856
Pt 3.22448 33.51 9.11707
Pt 1.61223 33.51 11.3956
Pt 2.41837 34.9062 6.83855
Pt 0.806118 34.9062 9.11708
Pt 4.03059 34.9062 11.3956
Pt -1.92911e-05 33.51 13.6742
Pt 3.22442 33.51 15.9527
Pt 1.61216 33.51 18.2312
Pt 2.41834 34.9062 13.6741
Pt 0.806078 34.9062 15.9527
Pt 4.0305 34.9063 18.2312
Pt 38.6939 33.5101 20.5097
Pt 3.22437 33.5102 22.7883
Pt 1.61218 33.5102 25.0699
Pt 2.41826 34.9063 20.5097
Pt 0.806042 34.9064 22.7884
Pt 4.03057 34.9064 25.0698
Pt 0 36.3024 0
Pt 3.22449 36.3024 2.28147
Pt 1.61225 36.3024 4.56006
Pt 2.41837 37.6987 0
Pt 0.806124 37.6987 2.28147
Pt 4.03061 37.6987 4.56006
Pt -1.32606e-06 36.3024 6.83856
Pt 3.22448 36.3025 9.11707
Pt 1.61223 36.3025 11.3956
Pt 2.41836 37.6987 6.83855
Pt 0.806117 37.6987 9.11708
Pt 4.03059 37.6987 11.3956
Pt 38.6939 36.3025 13.6741
Pt 3.22443 36.3025 15.9527
Pt 1.61217 36.3025 18.2312
Pt 2.41833 37.6987 13.6741
Pt 0.806082 37.6987 15.9527
Pt 4.03053 37.6988 18.2312
Pt 38.6939 36.3025 20.5097
Pt 3.22442 36.3026 22.7883
Pt 1.61221 36.3026 25.0698
Pt 2.41829 37.6988 20.5097
Pt 0.80607 37.6988 22.7883
Pt 4.03061 37.6988 25.0698
Pt 0 39.0949 0
Pt 3.22449 39.0949 2.28147
Pt 1.61225 39.0949 4.56006
Pt 2.41837 40.4912 0
Pt 0.806124 40.4912 2.28147
Pt 4.03061 40.4912 4.56006
Pt -2.11242e-06 39.0949 6.83856
Pt 3.22448 39.0949 9.11707
Pt 1.61223 39.0949 11.3956
Pt 2.41837 40.4912 6.83856
Pt 0.806116 40.4912 9.11708
Pt 4.03059 40.4912 11.3956
Pt 38.6939 39.095 13.6741
Pt 3.22444 39.095 15.9527
Pt 1.61219 39.095 18.2312
Pt 2.41834 40.4912 13.6741
Pt 0.80609 40.4912 15.9527
Pt 4.03056 40.4912 18.2312
Pt 38.6939 39.095 20.5097
Pt 3.22446 39.095 22.7883
Pt 1.61224 39.095 25.0698
Pt 2.41833 40.4912 20.5097
Pt 0.8061 40.4912 22.7883
Pt 4.03062 40.4912 25.0698
Pt 0 41.8874 0
Pt 3.22449 41.8874 2.28147
Pt 1.61225 41.8874 4.56006
Pt 2.41837 43.2837 0
Pt 0.806123 43.2837 2.28147
Pt 4.03061 43.2837 4.56006
Pt 38.6939 41.8874 6.83856
Pt 3.22448 41.8874 9.11707
Pt 1.61223 41.8874 11.3956
Pt 2.41837 43.2837 6.83856
Pt 0.806116 43.2837 9.11708
Pt 4.03059 43.2837 11.3956
Pt 38.6939 41.8874 13.6742
Pt 3.22445 41.8874 15.9527
Pt 1.61221 41.8874 18.2312
Pt 2.41834 43.2837 13.6741
Pt 0.806094 43.2837 15.9527
Pt 4.03057 43.2837 18.2312
Pt 38.6939 41.8874 20.5097
Pt 3.22448 41.8875 22.7883
Pt 1.61225 41.8875 25.0698
Pt 2.41834 43.2837 20.5097
Pt 0.806111 43.2837 22.7883
Pt 4.03062 43.2837 25.0698
Pt 4.83674 0 0
Pt 8.06123 44.6799 2.28147
Pt 6.44898 44.6799 4.56005
Pt 7.25512 1.39625 0
Pt 5.64286 1.39624 2.28147
Pt 8.86735 1.39624 4.56004
Pt 4.83673 44.6799 6.83855
Pt 8.06121 44.6799 9.11705
Pt 6.44895 44.6799 11.3956
Pt 7.2551 1.39623 6.83854
Pt 5.64284 1.39623 9.11706
Pt 8.86733 1.39621 11.3956
Pt 4.8367 44.6799 13.6741
Pt 8.06119 44.6799 15.9527
Pt 6.44894 44.6799 18.2312
Pt 7.25506 1.3962 13.6741
Pt 5.64281 1.3962 15.9527
Pt 8.86731 1.39617 18.2312
Pt 4.83671 44.6799 20.5097
Pt 8.06124 44.6799 22.7883
Pt 6.449 44.6799 25.0698
Pt 7.25507 1.39618 20.5097
Pt 5.64285 1.39619 22.7883
Pt 8.86739 1.3962 25.0698
Pt 4.83674 2.7925 0
Pt 8.06123 2.79249 2.28146
Pt 6.44898 2.79248 4.56005
Pt 7.25512 4.18874 0
Pt 5.64286 4.18874 2.28147
Pt 8.86735 4.18872 4.56004
Pt 4.83673 2.79248 6.83855
Pt 8.06121 2.79246 9.11704
Pt 6.44895 2.79245 11.3956
Pt 7.2551 4.18872 6.83853
Pt 5.64284 4.18871 9.11705
Pt 8.86732 4.18867 11.3956
Pt 4.83669 2.79244 13.6741
Pt 8.06116 2.79239 15.9526
Pt 6.44891 2.79239 18.2312
Pt 7.25505 4.18865 13.6741
Pt 5.64278 4.18864 15.9526
Pt 8.86726 4.18856 18.2312
Pt 4.83668 2.79241 20.5097
Pt 8.06123 2.7924 22.7883
Pt 6.44901 2.79242 25.0698
Pt 7.25503 4.18858 20.5097
Pt 5.64282 4.18862 22.7883
Pt 8.86741 4.18864 25.0698
Pt 4.83674 5.58499 0
Pt 8.06123 5.58498 2.28146
Pt 6.44898 5.58498 4.56004
Pt 7.25512 6.98124 0
Pt 5.64286 6.98123 2.28147
Pt 8.86735 6.98121 4.56002
Pt 4.83673 5.58498 6.83854
Pt 8.06121 5.58493 9.11703
Pt 6.44894 5.58492 11.3956
Pt 7.25509 6.98121 6.83852
Pt 5.64284 6.9812 9.11705
Pt 8.8673 6.98113 11.3955
Pt 4.83668 5.58492 13.6741
Pt 8.06112 5.5848 15.9526
Pt 6.44886 5.58481 18.2312
Pt 7.25503 6.9811 13.6741
Pt 5.64276 6.9811 15.9526
Pt 8.86718 6.98093 18.2311
Pt 4.83663 5.58483 20.5097
Pt 8.06118 5.58479 22.7883
Pt 6.44899 5.58484 25.0698
Pt 7.25495 6.98095 20.5096
Pt 5.64276 6.98101 22.7883
Pt 8.86739 6.98104 25.0698
Pt 4.83674 8.37749 0
Pt 8.06123 8.37747 2.28145
Pt 6.44898 8.37747 4.56004
Pt 7.25512 9.77373 0
Pt 5.64286 9.77373 2.28147
Pt 8.86734 9.7737 4.56001
Pt 4.83673 8.37747 6.83854
Pt 8.0612 8.37742 9.11701
Pt 6.44894 8.37741 11.3956
Pt 7.25509 9.7737 6.83851
Pt 5.64284 9.7737 9.11705
Pt 8.86729 9.7736 11.3955
Pt 4.83668 8.37741 13.6741
Pt 8.06107 8.37722 15.9525
Pt 6.44881 8.37722 18.2311
Pt 7.25503 9.77358 13.674
Pt 5.64276 9.77357 15.9526
Pt 8.86709 9.77328 18.231
Pt 4.83657 8.37724 20.5097
Pt 8.06108 8.37712 22.7883
Pt 6.44893 8.37723 25.0698
Pt 7.25484 9.77331 20.5096
Pt 5.64265 9.77338 22.7883
Pt 8.86729 9.77338 25.0697
Pt 4.83674 11.17 0
Pt 8.06122 11.17 2.28145
Pt 6.44898 11.17 4.56004
Pt 7.25512 12.5662 0
Pt 5.64286 12.5662 2.28147
Pt 8.86734 12.5662 4.56001
Pt 4.83673 11.17 6.83855
Pt 8.0612 11.1699 9.11699
Pt 6.44896 11.1699 11.3956
Pt 7.25509 12.5662 6.83851
Pt 5.64285 12.5662 9.11706
Pt 8.86731 12.5661 11.3955
Pt 4.83671 11.1699 13.6741
Pt 8.06108 11.1697 15.9525
Pt 6.4488 11.1697 18.2311
Pt 7.25506 12.5661 13.674
Pt 5.64282 12.5661 15.9526
Pt 8.86709 12.5657 18.2309
Pt 4.83655 11.1697 20.5097
Pt 8.06086 11.1694 22.7882
Pt 6.44876 11.1696 25.0698
Pt 7.25478 12.5657 20.5095
Pt 5.64253 12.5658 22.7883
Pt 8.86696 12.5656 25.0696
Pt 4.83674 13.9625 0
Pt 8.06122 13.9625 2.28145
Pt 6.44898 13.9625 4.56005
Pt 7.25512 15.3587 0
Pt 5.64286 15.3587 2.28147
Pt 8.86734 15.3587 4.56001
Pt 4.83674 13.9625 6.83855
Pt 8.06121 13.9624 9.11699
Pt 6.44898 13.9624 11.3956
Pt 7.25511 15.3587 6.83852
Pt 5.64288 15.3587 9.11706
Pt 8.86734 15.3586 11.3955
Pt 4.83676 13.9624 13.6741
Pt 8.06116 13.9622 15.9525
Pt 6.44891 13.9622 18.2311
Pt 7.25514 15.3586 13.674
Pt 5.64293 15.3586 15.9526
Pt 8.86721 15.3583 18.2309
Pt 4.83665 13.9622 20.5097
Pt 8.06058 13.9617 22.7881
Pt 6.44841 13.9619 25.0698
Pt 7.25489 15.3583 20.5096
Pt 5.64252 15.3583 22.7883
Pt 8.86622 15.3579 25.0696
Pt 4.83674 16.755 0
Pt 8.06123 16.755 2.28145
Pt 6.44899 16.755 4.56005
Pt 7.25512 18.1512 0
Pt 5.64287 18.1512 2.28146
Pt 8.86735 18.1512 4.56001
Pt 4.83676 16.755 6.83854
Pt 8.06124 16.7549 9.117
Pt 6.44903 16.7549 11.3956
Pt 7.25512 18.1512 6.83853
Pt 5.64291 18.1512 9.11706
Pt 8.86738 18.1511 11.3955
Pt 4.83684 16.755 13.6741
Pt 8.06129 16.7548 15.9525
Pt 6.44907 16.7548 18.2311
Pt 7.25521 18.1512 13.6741
Pt 5.64306 18.1512 15.9526
Pt 8.86733 18.151 18.2309
Pt 4.83681 16.7548 20.5097
Pt 8.06054 16.7544 22.7882
Pt 6.44808 16.7545 25.0698
Pt 7.25502 18.151 20.5096
Pt 5.64259 18.151 22.7883
Pt 8.86565 18.1506 25.0696
Pt 4.83674 19.5475 0
Pt 8.06123 19.5475 2.28145
Pt 6.449 19.5475 4.56004
Pt 7.25512 20.9437 0
Pt 5.64287 20.9437 2.28146
Pt 8.86735 20.9437 4.56001
Pt 4.83678 19.5475 6.83852
Pt 8.06126 19.5475 9.11701
Pt 6.44908 19.5475 11.3956
Pt 7.25513 20.9437 6.83853
Pt 5.64293 20.9437 9.11705
Pt 8.86739 20.9437 11.3955
Pt 4.83692 19.5475 13.6741
Pt 8.06136 19.5474 15.9525
Pt 6.44917 19.5474 18.2312
Pt 7.25525 20.9437 13.6741
Pt 5.64312 20.9437 15.9526
Pt 8.86737 20.9437 18.2309
Pt 4.83692 19.5474 20.5097
Pt 8.06063 19.5473 22.7882
Pt 6.44795 19.5473 25.0698
Pt 7.25507 20.9437 20.5096
Pt 5.64262 20.9437 22.7883
Pt 8.86548 20.9437 25.0696
Pt 4.83674 22.34 0
Pt 8.06123 22.34 2.28145
Pt 6.449 22.34 4.56004
Pt 7.25512 23.7362 0
Pt 5.64287 23.7362 2.28146
Pt 8.86735 23.7362 4.56001
Pt 4.83678 22.34 6.83852
Pt 8.06126 22.34 9.11701
Pt 6.44908 22.34 11.3956
Pt 7.25512 23.7362 6.83853
Pt 5.64291 23.7362 9.11705
Pt 8.86738 23.7363 11.3955
Pt 4.83692 22.34 13.6741
Pt 8.06136 22.34 15.9525
Pt 6.44917 22.34 18.2312
Pt 7.25522 23.7363 13.6741
Pt 5.64306 23.7363 15.9526
Pt 8.86733 23.7364 18.2309
Pt 4.83692 22.34 20.5097
Pt 8.06063 22.3402 22.7882
Pt 6.44795 22.3401 25.0698
Pt 7.25502 23.7364 20.5096
Pt 5.64259 23.7364 22.7883
Pt 8.86565 23.7368 25.0696
Pt 4.83674 25.1325 0
Pt 8.06123 25.1325 2.28145
Pt 6.44899 25.1325 4.56005
Pt 7.25512 26.5287 0
Pt 5.64286 26.5287 2.28147
Pt 8.86734 26.5287 4.56001
Pt 4.83676 25.1325 6.83854
Pt 8.06124 25.1325 9.117
Pt 6.44903 25.1325 11.3956
Pt 7.25511 26.5287 6.83852
Pt 5.64288 26.5287 9.11706
Pt 8.86735 26.5288 11.3955
Pt 4.83685 25.1325 13.6741
Pt 8.06129 25.1326 15.9525
Pt 6.44907 25.1326 18.2311
Pt 7.25514 26.5288 13.674
Pt 5.64293 26.5288 15.9526
Pt 8.86721 26.5291 18.2309
Pt 4.83681 25.1327 20.5097
Pt 8.06053 25.133 22.7882
Pt 6.44808 25.1329 25.0698
Pt 7.25488 26.5291 20.5096
Pt 5.64252 26.5291 22.7883
Pt 8.86621 26.5296 25.0696
Pt 4.83674 27.925 0
Pt 8.06122 27.925 2.28145
Pt 6.44898 27.925 4.56005
Pt 7.25512 29.3212 0
Pt 5.64286 29.3212 2.28147
Pt 8.86734 29.3212 4.56001
Pt 4.83674 27.925 6.83855
Pt 8.06121 27.925 9.11699
Pt 6.44899 27.925 11.3956
Pt 7.25509 29.3212 6.83851
Pt 5.64286 29.3212 9.11706
Pt 8.86731 29.3213 11.3955
Pt 4.83676 27.925 13.6741
Pt 8.06116 27.9252 15.9525
Pt 6.44891 27.9252 18.2311
Pt 7.25506 29.3213 13.674
Pt 5.64282 29.3213 15.9526
Pt 8.86708 29.3217 18.2309
Pt 4.83665 27.9252 20.5097
Pt 8.06058 27.9257 22.7881
Pt 6.4484 27.9255 25.0698
Pt 7.25478 29.3217 20.5095
Pt 5.64252 29.3217 22.7883
Pt 8.86695 29.3218 25.0696
Pt 4.83674 30.7174 0
Pt 8.06122 30.7175 2.28145
Pt 6.44898 30.7175 4.56004
Pt 7.25512 32.1137 0
Pt 5.64286 32.1137 2.28147
Pt 8.86734 32.1137 4.56001
Pt 4.83673 30.7175 6.83855
Pt 8.0612 30.7175 9.11699
Pt 6.44896 30.7175 11.3956
Pt 7.25509 32.1137 6.83851
Pt 5.64284 32.1137 9.11705
Pt 8.86729 32.1138 11.3955
Pt 4.83671 30.7175 13.6741
Pt 8.06108 30.7177 15.9525
Pt 6.4488 30.7178 18.2311
Pt 7.25502 32.1139 13.674
Pt 5.64276 32.1139 15.9526
Pt 8.86708 32.1142 18.231
Pt 4.83655 30.7178 20.5097
Pt 8.06085 30.718 22.7882
Pt 6.44876 30.7179 25.0698
Pt 7.25483 32.1141 20.5096
Pt 5.64265 32.1141 22.7883
Pt 8.86728 32.1141 25.0697
Pt 4.83674 33.5099 0
Pt 8.06123 33.51 2.28145
Pt 6.44898 33.51 4.56004
Pt 7.25512 34.9062 0
Pt 5.64286 34.9062 2.28147
Pt 8.86735 34.9062 4.56002
Pt 4.83673 33.51 6.83854
Pt 8.0612 33.51 9.117
Pt 6.44894 33.51 11.3956
Pt 7.25509 34.9062 6.83852
Pt 5.64284 34.9062 9.11705
Pt 8.8673 34.9063 11.3955
Pt 4.83668 33.51 13.6741
Pt 8.06107 33.5102 15.9525
Pt 6.4488 33.5102 18.2311
Pt 7.25503 34.9063 13.6741
Pt 5.64276 34.9063 15.9526
Pt 8.86718 34.9065 18.2311
Pt 4.83657 33.5102 20.5097
Pt 8.06107 33.5103 22.7883
Pt 6.44892 33.5102 25.0698
Pt 7.25494 34.9065 20.5096
Pt 5.64275 34.9064 22.7883
Pt 8.86738 34.9064 25.0698
Pt 4.83674 36.3024 0
Pt 8.06123 36.3025 2.28146
Pt 6.44898 36.3025 4.56004
Pt 7.25512 37.6987 0
Pt 5.64286 37.6987 2.28147
Pt 8.86735 37.6987 4.56004
Pt 4.83673 36.3025 6.83854
Pt 8.0612 36.3025 9.11703
Pt 6.44894 36.3025 11.3956
Pt 7.25509 37.6987 6.83853
Pt 5.64284 37.6987 9.11705
Pt 8.86731 37.6988 11.3956
Pt 4.83668 36.3025 13.6741
Pt 8.06112 36.3026 15.9526
Pt 6.44886 36.3026 18.2312
Pt 7.25504 37.6988 13.6741
Pt 5.64278 37.6988 15.9526
Pt 8.86726 37.6989 18.2312
Pt 4.83662 36.3026 20.5097
Pt 8.06118 36.3026 22.7883
Pt 6.44899 36.3026 25.0698
Pt 7.25502 37.6989 20.5097
Pt 5.64281 37.6988 22.7883
Pt 8.8674 37.6988 25.0698
Pt 4.83674 39.0949 0
Pt 8.06123 39.0949 2.28146
Pt 6.44898 39.0949 4.56005
Pt 7.25512 40.4912 0
Pt 5.64286 40.4912 2.28147
Pt 8.86735 40.4912 4.56004
Pt 4.83673 39.0949 6.83855
Pt 8.06121 39.095 9.11704
Pt 6.44895 39.095 11.3956
Pt 7.2551 40.4912 6.83854
Pt 5.64284 40.4912 9.11706
Pt 8.86733 40.4912 11.3956
Pt 4.83669 39.095 13.6741
Pt 8.06116 39.095 15.9526
Pt 6.44891 39.095 18.2312
Pt 7.25506 40.4912 13.6741
Pt 5.64281 40.4912 15.9527
Pt 8.86731 40.4913 18.2312
Pt 4.83668 39.095 20.5097
Pt 8.06122 39.095 22.7883
Pt 6.449 39.095 25.0698
Pt 7.25507 40.4913 20.5097
Pt 5.64284 40.4912 22.7883
Pt 8.86739 40.4912 25.0698
Pt 4.83674 41.8874 0
Pt 8.06123 41.8874 2.28147
Pt 6.44898 41.8874 4.56005
Pt 7.25512 43.2837 0
Pt 5.64286 43.2837 2.28147
Pt 8.86735 43.2837 4.56005
Pt 4.83673 41.8874 6.83855
Pt 8.06121 41.8874 9.11705
Pt 6.44895 41.8874 11.3956
Pt 7.2551 43.2837 6.83854
Pt 5.64284 43.2837 9.11706
Pt 8.86733 43.2837 11.3956
Pt 4.8367 41.8874 13.6741
Pt 8.06119 41.8875 15.9527
Pt 6.44894 41.8875 18.2312
Pt 7.25507 43.2837 13.6741
Pt 5.64281 43.2837 15.9527
Pt 8.86733 43.2837 18.2312
Pt 4.83671 41.8875 20.5097
Pt 8.06124 41.8875 22.7883
Pt 6.449 41.8875 25.0698
Pt 7.25509 43.2837 20.5097
Pt 5.64285 43.2837 22.7883
Pt 8.86738 43.2837 25.0698
Pt 9.67349 0 0
Pt 12.898 44.6799 2.28147
Pt 11.2857 44.6799 4.56005
Pt 12.0919 1.39625 0
Pt 10.4796 1.39624 2.28146
Pt 13.7041 1.39624 4.56005
Pt 9.67347 44.6799 6.83854
Pt 12.898 44.6799 9.11707
Pt 11.2857 44.6799 11.3956
Pt 12.0918 1.39623 6.83854
Pt 10.4796 1.39622 9.11705
Pt 13.7041 1.39622 11.3956
Pt 9.67345 44.6799 13.6741
Pt 12.898 44.6799 15.9527
Pt 11.2857 44.6799 18.2312
Pt 12.0918 1.3962 13.6741
Pt 10.4796 1.39618 15.9527
Pt 13.7041 1.3962 18.2312
Pt 9.67348 44.6799 20.5097
Pt 12.898 44.6799 22.7884
Pt 11.2858 44.6799 25.0698
Pt 12.0919 1.39619 20.5097
Pt 10.4796 1.39619 22.7884
Pt 13.7042 1.39623 25.0699
Pt 9.67349 2.7925 0
Pt 12.898 2.79249 2.28146
Pt 11.2857 2.79248 4.56004
Pt 12.0919 4.18874 0
Pt 10.4796 4.18873 2.28146
Pt 13.7041 4.18873 4.56004
Pt 9.67347 2.79247 6.83853
Pt 12.898 2.79247 9.11706
Pt 11.2857 2.79245 11.3956
Pt 12.0918 4.18872 6.83853
Pt 10.4796 4.1887 9.11704
Pt 13.7041 4.18869 11.3956
Pt 9.67343 2.79241 13.6741
Pt 12.8979 2.79241 15.9527
Pt 11.2857 2.79238 18.2312
Pt 12.0918 4.18864 13.6741
Pt 10.4795 4.18859 15.9526
Pt 13.7041 4.18862 18.2312
Pt 9.67345 2.79237 20.5097
Pt 12.8981 2.79245 22.7884
Pt 11.2858 2.79244 25.0698
Pt 12.0919 4.1886 20.5097
Pt 10.4796 4.18861 22.7883
Pt 13.7042 4.18872 25.0699
Pt 9.67349 5.58499 0
Pt 12.898 5.58498 2.28146
Pt 11.2857 5.58497 4.56003
Pt 12.0919 6.98124 0
Pt 10.4796 6.98122 2.28145
Pt 13.7041 6.98122 4.56003
Pt 9.67347 5.58495 6.83851
Pt 12.898 5.58494 9.11704
Pt 11.2857 5.5849 11.3956
Pt 12.0918 6.9812 6.83851
Pt 10.4796 6.98117 9.11701
Pt 13.7041 6.98114 11.3956
Pt 9.6734 5.58484 13.6741
Pt 12.8979 5.58481 15.9527
Pt 11.2856 5.58475 18.2312
Pt 12.0918 6.98106 13.6741
Pt 10.4795 6.98097 15.9526
Pt 13.704 6.98098 18.2312
Pt 9.67339 5.58474 20.5097
Pt 12.8981 5.58487 22.7884
Pt 11.2858 5.58487 25.0698
Pt 12.0918 6.98093 20.5097
Pt 10.4796 6.98096 22.7883
Pt 13.7043 6.98122 25.0699
Pt 9.67349 8.37749 0
Pt 12.898 8.37747 2.28145
Pt 11.2857 8.37746 4.56002
Pt 12.0919 9.77373 0
Pt 10.4796 9.77371 2.28144
Pt 13.7041 9.77371 4.56001
Pt 9.67346 8.37744 6.83849
Pt 12.8979 8.37741 9.11699
Pt 11.2857 8.37735 11.3955
Pt 12.0918 9.77368 6.83847
Pt 10.4796 9.77364 9.11696
Pt 13.704 9.7736 11.3955
Pt 9.67337 8.37727 13.674
Pt 12.8978 8.37717 15.9526
Pt 11.2855 8.37706 18.2311
Pt 12.0917 9.77348 13.6739
Pt 10.4794 9.77335 15.9525
Pt 13.7039 9.77328 18.231
Pt 9.67326 8.37704 20.5096
Pt 12.898 8.37722 22.7883
Pt 11.2858 8.37726 25.0697
Pt 12.0916 9.77315 20.5095
Pt 10.4794 9.77321 22.7882
Pt 13.7043 9.7737 25.0697
Pt 9.67349 11.17 0
Pt 12.898 11.17 2.28144
Pt 11.2857 11.1699 4.55999
Pt 12.0919 12.5662 0
Pt 10.4796 12.5662 2.28144
Pt 13.7041 12.5662 4.55998
Pt 9.67346 11.1699 6.83847
Pt 12.8979 11.1699 9.11692
Pt 11.2857 11.1698 11.3954
Pt 12.0918 12.5662 6.83842
Pt 10.4796 12.5661 9.11692
Pt 13.7041 12.5661 11.3953
Pt 9.67337 11.1697 13.6739
Pt 12.8978 11.1695 15.9523
Pt 11.2854 11.1693 18.2308
Pt 12.0917 12.5659 13.6738
Pt 10.4794 12.5658 15.9523
Pt 13.7037 12.5655 18.2306
Pt 9.67306 11.1693 20.5094
Pt 12.8978 11.1694 22.788
Pt 11.2857 11.1696 25.0696
Pt 12.0912 12.5653 20.5091
Pt 10.479 12.5653 22.7879
Pt 13.7041 12.5661 25.0693
Pt 9.67349 13.9625 0
Pt 12.898 13.9625 2.28143
Pt 11.2857 13.9624 4.55997
Pt 12.0919 15.3587 0
Pt 10.4796 15.3587 2.28143
Pt 13.7041 15.3587 4.55994
Pt 9.67345 13.9624 6.83845
Pt 12.8979 13.9624 9.11681
Pt 11.2857 13.9623 11.3953
Pt 12.0918 15.3587 6.83837
Pt 10.4796 15.3586 9.11688
Pt 13.704 15.3586 11.3951
Pt 9.6734 13.9622 13.6739
Pt 12.8978 13.962 15.9519
Pt 11.2854 13.9617 18.2305
Pt 12.0917 15.3584 13.6736
Pt 10.4795 15.3583 15.9522
Pt 13.7037 15.3579 18.2298
Pt 9.67293 13.9617 20.5092
Pt 12.8969 13.9613 22.7874
Pt 11.2851 13.9617 25.0692
Pt 12.091 15.3576 20.5085
Pt 10.4784 15.3576 22.7876
Pt 13.7032 15.358 25.0683
Pt 9.67349 16.755 0
Pt 12.898 16.755 2.28141
Pt 11.2857 16.7549 4.55995
Pt 12.0919 18.1512 0
Pt 10.4796 18.1512 2.28143
Pt 13.7041 18.1512 4.55991
Pt 9.67346 16.7549 6.83845
Pt 12.8979 16.7549 9.1167
Pt 11.2857 16.7548 11.3953
Pt 12.0918 18.1512 6.83832
Pt 10.4796 18.1512 9.11687
Pt 13.704 18.1511 11.3949
Pt 9.67347 16.7548 13.6739
Pt 12.8978 16.7545 15.9516
Pt 11.2854 16.7544 18.2304
Pt 12.0917 18.1511 13.6735
Pt 10.4795 18.151 15.9522
Pt 13.7035 18.1505 18.2293
Pt 9.67304 16.7544 20.5092
Pt 12.8957 16.7532 22.7863
Pt 11.2833 16.7536 25.0688
Pt 12.0911 18.1505 20.5084
Pt 10.4783 18.1505 22.7876
Pt 13.6985 18.1487 25.067
Pt 9.67349 19.5475 0
Pt 12.898 19.5475 2.2814
Pt 11.2857 19.5475 4.55995
Pt 12.0919 20.9437 0
Pt 10.4796 20.9437 2.28143
Pt 13.7041 20.9437 4.5599
Pt 9.67347 19.5475 6.83845
Pt 12.8979 19.5474 9.11663
Pt 11.2857 19.5474 11.3952
Pt 12.0918 20.9437 6.83831
Pt 10.4796 20.9437 9.11686
Pt 13.704 20.9437 11.3948
Pt 9.67351 19.5474 13.6739
Pt 12.8977 19.5473 15.9516
Pt 11.2855 19.5473 18.2305
Pt 12.0918 20.9437 13.6735
Pt 10.4796 20.9437 15.9522
Pt 13.7034 20.9437 18.2293
Pt 9.67318 19.5473 20.5093
Pt 12.8958 19.5468 22.7864
Pt 11.2823 19.5468 25.0688
Pt 12.0912 20.9437 20.5085
Pt 10.4784 20.9437 22.7877
Pt 13.6971 20.9437 25.0673
Pt 9.67349 22.34 0
Pt 12.898 22.34 2.2814
Pt 11.2857 22.34 4.55995
Pt 12.0919 23.7362 0
Pt 10.4796 23.7362 2.28143
Pt 13.7041 23.7362 4.55991
Pt 9.67347 22.34 6.83845
Pt 12.8979 22.34 9.11663
Pt 11.2857 22.34 11.3952
Pt 12.0918 23.7363 6.83832
Pt 10.4796 23.7363 9.11687
Pt 13.704 23.7363 11.3949
Pt 9.67351 22.34 13.6739
Pt 12.8977 22.3402 15.9516
Pt 11.2855 22.3402 18.2305
Pt 12.0917 23.7364 13.6735
Pt 10.4795 23.7364 15.9522
Pt 13.7035 23.7369 18.2293
Pt 9.67318 22.3402 20.5093
Pt 12.8958 22.3407 22.7864
Pt 11.2823 22.3406 25.0688
Pt 12.0911 23.737 20.5084
Pt 10.4783 23.737 22.7876
Pt 13.6985 23.7388 25.067
Pt 9.67349 25.1325 0
Pt 12.898 25.1325 2.28141
Pt 11.2857 25.1325 4.55995
Pt 12.0919 26.5287 0
Pt 10.4796 26.5287 2.28143
Pt 13.7041 26.5287 4.55994
Pt 9.67346 25.1325 6.83845
Pt 12.8979 25.1325 9.1167
Pt 11.2857 25.1326 11.3953
Pt 12.0918 26.5288 6.83836
Pt 10.4796 26.5288 9.11688
Pt 13.704 26.5289 11.3951
Pt 9.67347 25.1326 13.6739
Pt 12.8978 25.1329 15.9516
Pt 11.2854 25.133 18.2304
Pt 12.0917 26.529 13.6736
Pt 10.4795 26.5291 15.9522
Pt 13.7037 26.5296 18.2298
Pt 9.67304 25.1331 20.5092
Pt 12.8957 25.1343 22.7862
Pt 11.2833 25.1339 25.0688
Pt 12.091 26.5299 20.5085
Pt 10.4784 26.5299 22.7876
Pt 13.7032 26.5295 25.0682
Pt 9.67349 27.925 0
Pt 12.898 27.925 2.28142
Pt 11.2857 27.925 4.55997
Pt 12.0919 29.3212 0
Pt 10.4796 29.3212 2.28144
Pt 13.7041 29.3212 4.55998
Pt 9.67345 27.925 6.83845
Pt 12.8979 27.9251 9.1168
Pt 11.2857 27.9251 11.3953
Pt 12.0918 29.3213 6.83842
Pt 10.4796 29.3213 9.11692
Pt 13.7041 29.3214 11.3953
Pt 9.67341 27.9252 13.6739
Pt 12.8978 27.9255 15.9519
Pt 11.2854 27.9257 18.2305
Pt 12.0917 29.3215 13.6738
Pt 10.4794 29.3217 15.9523
Pt 13.7037 29.322 18.2305
Pt 9.67292 27.9258 20.5092
Pt 12.8969 27.9262 22.7874
Pt 11.2851 27.9258 25.0692
Pt 12.0912 29.3222 20.5091
Pt 10.479 29.3221 22.7879
Pt 13.7041 29.3214 25.0693
Pt 9.67349 30.7174 0
Pt 12.898 30.7175 2.28144
Pt 11.2857 30.7175 4.55999
Pt 12.0919 32.1137 0
Pt 10.4796 32.1137 2.28144
Pt 13.7041 32.1137 4.56001
Pt 9.67346 30.7175 6.83847
Pt 12.8979 30.7175 9.11691
Pt 11.2857 30.7176 11.3954
Pt 12.0918 32.1137 6.83847
Pt 10.4796 32.1138 9.11696
Pt 13.704 32.1138 11.3955
Pt 9.67337 30.7177 13.6739
Pt 12.8978 30.7179 15.9523
Pt 11.2854 30.7181 18.2308
Pt 12.0917 32.114 13.6739
Pt 10.4794 32.1141 15.9525
Pt 13.7039 32.1142 18.231
Pt 9.67305 30.7182 20.5094
Pt 12.8977 30.7181 22.788
Pt 11.2857 30.7179 25.0696
Pt 12.0916 32.1143 20.5095
Pt 10.4794 32.1142 22.7882
Pt 13.7043 32.1137 25.0697
Pt 9.67349 33.5099 0
Pt 12.898 33.51 2.28145
Pt 11.2857 33.51 4.56002
Pt 12.0919 34.9062 0
Pt 10.4796 34.9062 2.28145
Pt 13.7041 34.9062 4.56003
Pt 9.67346 33.51 6.83849
Pt 12.8979 33.51 9.11699
Pt 11.2857 33.5101 11.3955
Pt 12.0918 34.9062 6.83851
Pt 10.4796 34.9063 9.117
Pt 13.7041 34.9063 11.3956
Pt 9.67337 33.5102 13.674
Pt 12.8978 33.5103 15.9525
Pt 11.2855 33.5104 18.2311
Pt 12.0918 34.9064 13.674
Pt 10.4795 34.9065 15.9526
Pt 13.704 34.9065 18.2312
Pt 9.67325 33.5104 20.5096
Pt 12.898 33.5102 22.7883
Pt 11.2858 33.5102 25.0697
Pt 12.0918 34.9065 20.5097
Pt 10.4796 34.9065 22.7883
Pt 13.7043 34.9062 25.0699
Pt 9.67349 36.3024 0
Pt 12.898 36.3025 2.28146
Pt 11.2857 36.3025 4.56003
Pt 12.0919 37.6987 0
Pt 10.4796 37.6987 2.28146
Pt 13.7041 37.6987 4.56004
Pt 9.67347 36.3025 6.83851
Pt 12.898 36.3025 9.11704
Pt 11.2857 36.3025 11.3956
Pt 12.0918 37.6987 6.83853
Pt 10.4796 37.6987 9.11703
Pt 13.7041 37.6987 11.3956
Pt 9.6734 36.3026 13.6741
Pt 12.8979 36.3026 15.9526
Pt 11.2856 36.3027 18.2312
Pt 12.0918 37.6988 13.6741
Pt 10.4795 37.6988 15.9526
Pt 13.7041 37.6988 18.2312
Pt 9.67338 36.3027 20.5097
Pt 12.8981 36.3026 22.7884
Pt 11.2858 36.3026 25.0698
Pt 12.0918 37.6988 20.5097
Pt 10.4796 37.6988 22.7883
Pt 13.7042 37.6987 25.0699
Pt 9.67349 39.0949 0
Pt 12.898 39.0949 2.28146
Pt 11.2857 39.095 4.56004
Pt 12.0919 40.4912 0
Pt 10.4796 40.4912 2.28146
Pt 13.7041 40.4912 4.56005
Pt 9.67347 39.095 6.83853
Pt 12.898 39.095 9.11706
Pt 11.2857 39.095 11.3956
Pt 12.0918 40.4912 6.83854
Pt 10.4796 40.4912 9.11705
Pt 13.7041 40.4912 11.3956
Pt 9.67343 39.095 13.6741
Pt 12.8979 39.095 15.9527
Pt 11.2857 39.0951 18.2312
Pt 12.0918 40.4912 13.6741
Pt 10.4796 40.4913 15.9527
Pt 13.7041 40.4912 18.2312
Pt 9.67345 39.0951 20.5097
Pt 12.898 39.095 22.7884
Pt 11.2858 39.095 25.0698
Pt 12.0919 40.4912 20.5097
Pt 10.4796 40.4912 22.7884
Pt 13.7042 40.4912 25.0699
Pt 9.67349 41.8874 0
Pt 12.898 41.8874 2.28147
Pt 11.2857 41.8874 4.56005
Pt 12.0919 43.2837 0
Pt 10.4796 43.2837 2.28146
Pt 13.7041 43.2837 4.56005
Pt 9.67347 41.8874 6.83853
Pt 12.898 41.8874 9.11707
Pt 11.2857 41.8874 11.3956
Pt 12.0918 43.2837 6.83854
Pt 10.4796 43.2837 9.11706
Pt 13.7041 43.2837 11.3956
Pt 9.67345 41.8875 13.6741
Pt 12.898 41.8875 15.9527