ITEM: TIMESTEP
222
ITEM: NUMBER OF ATOMS
3074
ITEM: BOX BOUNDS pp pp pp
0.0000000000000000e+00 3.8693948398131120e+01
0.0000000000000000e+00 4.4679925159782847e+01
0.0000000000000000e+00 6.0000000000000000e+01
ITEM: ATOMS id type xs ys zs
1 2 0 0 0
1693 2 0.500009 0.37501 0.227919
1675 2 0.499997 0.312526 0.34185
4 2 0.0625 0.03125 0
5 2 0.0208328 0.0312499 0.0380243
6 2 0.104166 0.0312497 0.0760003
1344 2 0.477884 0.46875 0.417238
1663 2 0.500002 0.312501 0.113978
1651 2 0.500001 0.250018 0.341837
10 2 0.0624986 0.0312496 0.113975
11 2 0.0208314 0.0312496 0.151951
12 2 0.104164 0.0312489 0.189926
1343 2 0.395738 0.46875 0.379751
1645 2 0.5 0.250003 0.227905
1639 2 0.5 0.25 0.113977
16 2 0.062497 0.0312488 0.227901
17 2 0.0208299 0.0312488 0.265877
18 2 0.104164 0.0312478 0.303852
1342 2 0.437406 0.46875 0.341736
1621 2 0.499999 0.187501 0.227904
1615 2 0.5 0.1875 0.113976
22 2 0.0624971 0.031248 0.341828
23 2 0.0208306 0.0312483 0.379804
24 2 0.104167 0.0312481 0.417829
25 2 0 0.0625 0
26 2 0.0833328 0.0624998 0.0380242
27 2 0.0416657 0.0624997 0.0760003
28 2 0.0625 0.09375 0
29 2 0.0208328 0.0937498 0.0380243
30 2 0.104166 0.0937493 0.0760002
31 2 -1.29448e-06 0.0624997 0.113976
32 2 0.0833314 0.062499 0.151951
33 2 0.0416642 0.0624989 0.189926
34 2 0.0624986 0.0937493 0.113975
35 2 0.0208316 0.0937493 0.151951
36 2 0.104164 0.093748 0.189926
1341 2 0.416281 0.43739 0.417731
38 2 0.0833299 0.0624974 0.265877
39 2 0.0416628 0.0624975 0.303852
40 2 0.0624969 0.0937478 0.227901
41 2 0.0208297 0.0937478 0.265877
42 2 0.104163 0.0937455 0.303852
1340 2 0.458156 0.437452 0.379606
44 2 0.0833315 0.0624967 0.379804
45 2 0.0416653 0.0624974 0.417829
46 2 0.0624962 0.0937458 0.341828
47 2 0.0208298 0.0937465 0.379804
48 2 0.104167 0.0937458 0.417829
49 2 0 0.125 0
50 2 0.0833328 0.125 0.0380242
51 2 0.0416658 0.125 0.0760004
52 2 0.0625 0.15625 0
53 2 0.0208329 0.15625 0.0380244
54 2 0.104166 0.156249 0.0760002
55 2 -1.10646e-06 0.125 0.113976
56 2 0.0833316 0.124999 0.151951
57 2 0.0416644 0.124999 0.189926
58 2 0.0624988 0.156249 0.113976
59 2 0.020832 0.156249 0.151951
60 2 0.104164 0.156247 0.189926
1339 2 0.374958 0.437488 0.341788
62 2 0.0833295 0.124996 0.265876
63 2 0.0416623 0.124996 0.303852
64 2 0.0624972 0.156247 0.227901
65 2 0.0208299 0.156247 0.265877
66 2 0.104162 0.156244 0.303851
1338 2 0.479194 0.46875 0.303936
68 2 0.0833303 0.124994 0.379804
69 2 0.0416646 0.124995 0.417829
70 2 0.0624952 0.156244 0.341827
71 2 0.020829 0.156245 0.379804
72 2 0.104165 0.156243 0.417828
73 2 0 0.1875 0
74 2 0.0833329 0.1875 0.0380242
75 2 0.041666 0.187499 0.0760004
76 2 0.0625 0.21875 0
77 2 0.0208331 0.21875 0.0380244
78 2 0.104166 0.218749 0.0760001
1337 2 0.395821 0.46875 0.265852
80 2 0.083332 0.187498 0.151951
81 2 0.0416651 0.187498 0.189926
82 2 0.0624993 0.218749 0.113976
83 2 0.0208326 0.218749 0.151951
84 2 0.104165 0.218747 0.189925
85 2 -1.92548e-06 0.187499 0.227902
86 2 0.0833299 0.187495 0.265876
87 2 0.0416626 0.187495 0.303852
88 2 0.0624983 0.218747 0.227901
89 2 0.0208313 0.218747 0.265877
90 2 0.104162 0.218742 0.303851
1336 2 0.437506 0.46875 0.227908
92 2 0.0833289 0.187491 0.379804
93 2 0.0416638 0.187493 0.417829
94 2 0.0624955 0.218742 0.341827
95 2 0.0208293 0.218743 0.379804
96 2 0.104163 0.21874 0.417828
97 2 0 0.25 0
98 2 0.0833331 0.25 0.0380242
99 2 0.0416664 0.249999 0.0760004
100 2 0.0625 0.28125 0
101 2 0.0208333 0.28125 0.0380243
102 2 0.104167 0.281249 0.0759999
1335 2 0.416638 0.437497 0.303811
104 2 0.0833329 0.249998 0.15195
105 2 0.0416663 0.249999 0.189926
106 2 0.0625001 0.281249 0.113975
107 2 0.0208337 0.281249 0.151951
108 2 0.104167 0.281247 0.189925
109 2 -3.32621e-07 0.249999 0.227902
110 2 0.0833318 0.249995 0.265876
111 2 0.0416649 0.249995 0.303852
112 2 0.0625006 0.281247 0.227901
113 2 0.0208343 0.281248 0.265876
114 2 0.104165 0.281242 0.30385
115 2 -1.94619e-06 0.249995 0.341828
116 2 0.0833282 0.249989 0.379803
117 2 0.0416633 0.249991 0.417829
118 2 0.0624987 0.281242 0.341826
119 2 0.0208325 0.281241 0.379804
120 2 0.104159 0.281239 0.417827
121 2 0 0.3125 0
122 2 0.0833334 0.3125 0.0380241
123 2 0.041667 0.3125 0.0760001
124 2 0.0625 0.34375 0
125 2 0.0208337 0.34375 0.0380241
126 2 0.104167 0.343749 0.0759996
127 2 7.30552e-07 0.3125 0.113975
128 2 0.0833343 0.312499 0.15195
129 2 0.0416684 0.312499 0.189925
130 2 0.0625012 0.343749 0.113975
131 2 0.0208354 0.34375 0.15195
132 2 0.104169 0.343748 0.189924
133 2 2.51369e-06 0.312499 0.227901
134 2 0.0833358 0.312496 0.265875
135 2 0.0416701 0.312495 0.303851
136 2 0.0625044 0.343748 0.227899
137 2 0.0208397 0.343748 0.265875
138 2 0.10417 0.343744 0.303849
139 2 4.61367e-06 0.312494 0.341826
140 2 0.0833297 0.312489 0.379802
141 2 0.0416633 0.312491 0.417828
142 2 0.0625046 0.343743 0.341825
143 2 0.0208384 0.343742 0.379802
144 2 0.104155 0.34374 0.417826
145 2 0 0.375 0
146 2 0.0833338 0.375 0.0380239
147 2 0.0416678 0.375 0.0759997
148 2 0.0625 0.40625 0
149 2 0.020834 0.40625 0.0380239
150 2 0.104168 0.40625 0.0759992
151 2 1.8762e-06 0.375 0.113974
152 2 0.0833362 0.374999 0.151949
153 2 0.0416713 0.374999 0.189924
154 2 0.0625025 0.40625 0.113974
155 2 0.0208373 0.40625 0.151949
156 2 0.104172 0.406249 0.189923
157 2 7.05186e-06 0.374999 0.227898
158 2 0.0833409 0.374997 0.265873
159 2 0.0416773 0.374996 0.303848
160 2 0.0625084 0.406249 0.227898
161 2 0.0208461 0.406249 0.265872
162 2 0.104175 0.406246 0.303847
163 2 1.40769e-05 0.374995 0.341823
164 2 0.0833326 0.374992 0.3798
165 2 0.0416639 0.374993 0.417826
166 2 0.0625105 0.406246 0.341823
167 2 0.0208442 0.406245 0.379799
168 2 0.104152 0.406244 0.417825
169 2 0 0.4375 0
170 2 0.0833341 0.4375 0.0380237
171 2 0.0416684 0.4375 0.0759993
172 2 0.0625 0.46875 0
173 2 0.0208342 0.46875 0.0380237
174 2 0.104168 0.46875 0.075999
175 2 2.8945e-06 0.4375 0.113974
176 2 0.0833377 0.4375 0.151948
177 2 0.0416738 0.4375 0.189923
178 2 0.062503 0.46875 0.113974
179 2 0.0208383 0.46875 0.151948
180 2 0.104173 0.46875 0.189922
181 2 1.11741e-05 0.4375 0.227896
182 2 0.0833447 0.437499 0.265872
183 2 0.0416828 0.437499 0.303847
184 2 0.0625103 0.46875 0.227897
185 2 0.020849 0.46875 0.265871
186 2 0.104177 0.46875 0.303847
187 2 2.13631e-05 0.437498 0.341821
188 2 0.083335 0.437497 0.379799
189 2 0.0416644 0.437497 0.417824
190 2 0.062513 0.46875 0.341822
191 2 0.0208467 0.46875 0.379798
192 2 0.104151 0.46875 0.417824
385 2 0.125 0 0
1597 2 0.5 0.125001 0.227903
1573 2 0.5 0.0625004 0.227904
388 2 0.1875 0.03125 0
389 2 0.145833 0.0312498 0.0380243
390 2 0.229166 0.0312497 0.0760007
1334 2 0.458346 0.437512 0.265902
1333 2 0.374996 0.4375 0.227886
1332 2 0.479174 0.46875 0.189941
394 2 0.187499 0.0312494 0.113976
395 2 0.145832 0.0312491 0.151951
396 2 0.229165 0.031249 0.189927
1331 2 0.395836 0.46875 0.151948
1330 2 0.437504 0.46875 0.113978
1329 2 0.416671 0.437502 0.189926
400 2 0.187498 0.0312484 0.227902
401 2 0.145831 0.031248 0.265877
402 2 0.229167 0.0312481 0.303854
1328 2 0.458339 0.437501 0.151957
1327 2 0.375002 0.4375 0.113973
1326 2 0.479169 0.46875 0.076003
406 2 0.1875 0.0312477 0.341828
407 2 0.145834 0.0312478 0.379805
408 2 0.22917 0.0312487 0.41783
409 2 0.125 0.0625 0
410 2 0.208333 0.0624997 0.0380244
411 2 0.166666 0.0624994 0.0760003
412 2 0.1875 0.09375 0
413 2 0.145833 0.0937496 0.0380242
414 2 0.229166 0.0937493 0.0760005
415 2 0.124999 0.0624992 0.113975
416 2 0.208332 0.0624988 0.151951
417 2 0.166665 0.0624982 0.189926
418 2 0.187499 0.0937488 0.113975
419 2 0.145832 0.0937483 0.151951
420 2 0.229165 0.0937479 0.189926
421 2 0.124997 0.0624977 0.227901
422 2 0.208332 0.062497 0.265877
423 2 0.166665 0.0624964 0.303852
424 2 0.187498 0.0937467 0.227901
425 2 0.14583 0.0937459 0.265876
426 2 0.229166 0.0937456 0.303853
427 2 0.124998 0.0624963 0.341828
428 2 0.208335 0.062497 0.379805
429 2 0.166669 0.0624971 0.417829
430 2 0.187499 0.0937448 0.341828
431 2 0.145833 0.0937451 0.379804
432 2 0.22917 0.0937471 0.417829
433 2 0.125 0.125 0
434 2 0.208333 0.125 0.0380242
435 2 0.166666 0.124999 0.0760002
436 2 0.1875 0.15625 0
437 2 0.145833 0.156249 0.0380242
438 2 0.229166 0.156249 0.0760002
439 2 0.124999 0.124999 0.113975
440 2 0.208332 0.124998 0.151951
441 2 0.166664 0.124997 0.189925
442 2 0.187499 0.156248 0.113975
443 2 0.145832 0.156248 0.15195
444 2 0.229165 0.156247 0.189925
445 2 0.124997 0.124996 0.227901
446 2 0.208331 0.124995 0.265876
447 2 0.166663 0.124994 0.303851
448 2 0.187497 0.156245 0.2279
449 2 0.145829 0.156244 0.265876
450 2 0.229163 0.156242 0.303851
451 2 0.124996 0.124993 0.341827
452 2 0.208334 0.124994 0.379804
453 2 0.166668 0.124995 0.417828
454 2 0.187496 0.156241 0.341826
455 2 0.145831 0.156242 0.379803
456 2 0.229169 0.156245 0.417828
457 2 0.125 0.1875 0
458 2 0.208333 0.187499 0.0380241
459 2 0.166666 0.187499 0.0759999
460 2 0.1875 0.21875 0
461 2 0.145833 0.218749 0.0380241
462 2 0.229166 0.218749 0.0759996
463 2 0.124999 0.187498 0.113975
464 2 0.208332 0.187497 0.15195
465 2 0.166665 0.187496 0.189925
466 2 0.187499 0.218748 0.113974
467 2 0.145832 0.218748 0.15195
468 2 0.229165 0.218746 0.189924
469 2 0.124997 0.187496 0.2279
470 2 0.20833 0.187493 0.265874
471 2 0.166662 0.187491 0.30385
472 2 0.187498 0.218744 0.227899
473 2 0.14583 0.218743 0.265874
474 2 0.229161 0.218739 0.303848
475 2 0.124995 0.187491 0.341826
476 2 0.20833 0.18749 0.379802
477 2 0.166665 0.187492 0.417827
478 2 0.187493 0.218737 0.341824
479 2 0.145827 0.218738 0.379802
480 2 0.229164 0.218742 0.417825
481 2 0.125 0.25 0
482 2 0.208333 0.249999 0.0380238
483 2 0.166666 0.249999 0.0759996
484 2 0.1875 0.28125 0
485 2 0.145833 0.281249 0.0380239
486 2 0.229167 0.281249 0.075999
487 2 0.124999 0.249998 0.113975
488 2 0.208333 0.249997 0.151949
489 2 0.166666 0.249996 0.189924
490 2 0.1875 0.281248 0.113974
491 2 0.145833 0.281248 0.151949
492 2 0.229166 0.281246 0.189922
493 2 0.124999 0.249996 0.2279
494 2 0.20833 0.249991 0.265872
495 2 0.166662 0.249989 0.303848
496 2 0.187499 0.281244 0.227897
497 2 0.145832 0.281243 0.265873
498 2 0.22916 0.281237 0.303844
499 2 0.124994 0.249989 0.341825
500 2 0.208323 0.249985 0.379798
501 2 0.16666 0.249988 0.417825
502 2 0.187491 0.281235 0.341821
503 2 0.145824 0.281236 0.3798
504 2 0.229154 0.281237 0.417821
505 2 0.125 0.3125 0
506 2 0.208333 0.312499 0.0380236
507 2 0.166667 0.312499 0.0759992
508 2 0.1875 0.34375 0
509 2 0.145833 0.343749 0.0380237
510 2 0.229167 0.343749 0.0759983
511 2 0.125 0.312499 0.113974
512 2 0.208334 0.312497 0.151947
513 2 0.166667 0.312497 0.189923
514 2 0.187501 0.343748 0.113973
515 2 0.145835 0.343748 0.151948
516 2 0.229167 0.343746 0.18992
517 2 0.125001 0.312496 0.227899
518 2 0.208332 0.312492 0.26587
519 2 0.166664 0.31249 0.303847
520 2 0.187501 0.343745 0.227896
521 2 0.145836 0.343744 0.265872
522 2 0.229161 0.343739 0.303842
523 2 0.124997 0.312489 0.341824
524 2 0.208314 0.312482 0.379795
525 2 0.166649 0.312486 0.417824
526 2 0.187492 0.343738 0.34182
527 2 0.145822 0.343737 0.379799
528 2 0.229131 0.343731 0.417818
529 2 0.125 0.375 0
530 2 0.208334 0.374999 0.0380233
531 2 0.166667 0.374999 0.0759988
532 2 0.1875 0.40625 0
533 2 0.145834 0.40625 0.0380236
534 2 0.229167 0.406249 0.0759978
535 2 0.125002 0.374999 0.113974
536 2 0.208335 0.374998 0.151946
537 2 0.16667 0.374998 0.189922
538 2 0.187502 0.406249 0.113973
539 2 0.145836 0.406249 0.151948
540 2 0.229169 0.406248 0.189919
541 2 0.125005 0.374997 0.227898
542 2 0.208334 0.374994 0.265869
543 2 0.166668 0.374993 0.303846
544 2 0.187504 0.406247 0.227895
545 2 0.145839 0.406247 0.265871
546 2 0.229163 0.406244 0.303841
547 2 0.125001 0.374992 0.341823
548 2 0.20831 0.374986 0.379794
549 2 0.16664 0.374988 0.417822
550 2 0.187494 0.406243 0.341819
551 2 0.145823 0.406243 0.379798
552 2 0.229113 0.406236 0.417817
553 2 0.125 0.4375 0
554 2 0.208334 0.4375 0.0380231
555 2 0.166668 0.4375 0.0759985
556 2 0.1875 0.46875 0
557 2 0.145834 0.46875 0.0380235
558 2 0.229168 0.46875 0.0759977
559 2 0.125002 0.4375 0.113973
560 2 0.208336 0.437499 0.151946
561 2 0.166671 0.437499 0.189921
562 2 0.187502 0.46875 0.113972
563 2 0.145837 0.46875 0.151947
564 2 0.229169 0.46875 0.189919
565 2 0.125007 0.437499 0.227897
566 2 0.208336 0.437498 0.265868
567 2 0.16667 0.437498 0.303845
568 2 0.187505 0.46875 0.227895
569 2 0.145841 0.46875 0.265871
570 2 0.229164 0.46875 0.303841
571 2 0.125004 0.437497 0.341822
572 2 0.20831 0.437495 0.379793
573 2 0.166634 0.437495 0.417822
574 2 0.187495 0.46875 0.341819
575 2 0.145824 0.46875 0.379798
576 2 0.229107 0.46875 0.417817
769 2 0.25 0 0
1325 2 0.395835 0.46875 0.038024
1324 2 0.4375 0.46875 0
772 2 0.3125 0.03125 0
773 2 0.270833 0.0312499 0.0380246
774 2 0.354166 0.0312499 0.0760012
1323 2 0.416669 0.4375 0.0760006
1322 2 0.458335 0.4375 0.0380251
1321 2 0.375 0.4375 0
778 2 0.3125 0.0312498 0.113977
779 2 0.270833 0.0312495 0.151952
780 2 0.354167 0.03125 0.189928
1320 2 0.479223 0.40645 0.41767
1319 2 0.395723 0.406199 0.379734
1318 2 0.43748 0.406242 0.341766
784 2 0.3125 0.0312496 0.227904
785 2 0.270834 0.0312488 0.265879
786 2 0.35417 0.0312505 0.303856
1317 2 0.416647 0.375019 0.41779
1316 2 0.458262 0.374989 0.379769
1315 2 0.374969 0.374977 0.34179
790 2 0.312504 0.0312499 0.341831
791 2 0.270837 0.0312492 0.379806
792 2 0.354171 0.0312515 0.417832
793 2 0.25 0.0625 0
794 2 0.333333 0.0624999 0.0380247
795 2 0.291666 0.0624997 0.076001
796 2 0.3125 0.09375 0
797 2 0.270833 0.0937497 0.0380245
798 2 0.354166 0.0937498 0.0760012
799 2 0.249999 0.0624993 0.113976
800 2 0.333333 0.0624998 0.151952
801 2 0.291666 0.0624992 0.189928
802 2 0.3125 0.0937496 0.113976
803 2 0.270833 0.0937489 0.151951
804 2 0.354167 0.09375 0.189928
805 2 0.249999 0.0624981 0.227902
806 2 0.333334 0.0624997 0.265879
807 2 0.291668 0.0624985 0.303854
808 2 0.3125 0.0937489 0.227903
809 2 0.270833 0.0937472 0.265878
810 2 0.354169 0.0937506 0.303855
811 2 0.250002 0.0624975 0.341829
812 2 0.333338 0.0625011 0.379807
813 2 0.291671 0.0624997 0.417831
814 2 0.312503 0.093749 0.34183
815 2 0.270837 0.0937478 0.379805
816 2 0.354172 0.0937531 0.417832
817 2 0.25 0.125 0
818 2 0.333333 0.125 0.0380246
819 2 0.291666 0.124999 0.0760007
820 2 0.3125 0.15625 0
821 2 0.270833 0.15625 0.0380243
822 2 0.354167 0.15625 0.076001
823 2 0.249999 0.124999 0.113976
824 2 0.333333 0.125 0.151952
825 2 0.291666 0.124998 0.189927
826 2 0.3125 0.156249 0.113976
827 2 0.270833 0.156248 0.151951
828 2 0.354167 0.15625 0.189927
829 2 0.249998 0.124997 0.227901
830 2 0.333334 0.124999 0.265879
831 2 0.291667 0.124996 0.303853
832 2 0.312499 0.156248 0.227902
833 2 0.270831 0.156245 0.265876
834 2 0.354168 0.15625 0.303854
835 2 0.25 0.124995 0.341828
836 2 0.333338 0.125001 0.379806
837 2 0.291671 0.124999 0.41783
838 2 0.312501 0.156247 0.341828
839 2 0.270835 0.156245 0.379804
840 2 0.354172 0.156255 0.417831
841 2 0.25 0.1875 0
842 2 0.333334 0.1875 0.0380245
843 2 0.291667 0.187499 0.0760003
844 2 0.3125 0.21875 0
845 2 0.270833 0.218749 0.038024
846 2 0.354167 0.21875 0.0760006
847 2 0.249999 0.187498 0.113975
848 2 0.333334 0.1875 0.151951
849 2 0.291666 0.187498 0.189925
850 2 0.3125 0.218749 0.113975
851 2 0.270833 0.218748 0.151949
852 2 0.354167 0.21875 0.189926
853 2 0.249998 0.187495 0.227899
854 2 0.333332 0.187497 0.265877
855 2 0.291664 0.187493 0.30385
856 2 0.312499 0.218747 0.227899
857 2 0.27083 0.218742 0.265873
858 2 0.354165 0.218747 0.303851
859 2 0.249996 0.18749 0.341825
860 2 0.333336 0.187499 0.379804
861 2 0.291669 0.187498 0.417827
862 2 0.312496 0.218742 0.341824
863 2 0.270829 0.21874 0.3798
864 2 0.35417 0.218756 0.417828
865 2 0.25 0.25 0
866 2 0.333334 0.25 0.0380242
867 2 0.291667 0.249999 0.0759995
868 2 0.3125 0.28125 0
869 2 0.270833 0.281249 0.0380236
870 2 0.354168 0.28125 0.0759999
871 2 0.25 0.249998 0.113974
872 2 0.333334 0.249999 0.151949
873 2 0.291666 0.249997 0.189923
874 2 0.312501 0.281249 0.113974
875 2 0.270833 0.281247 0.151947
876 2 0.354168 0.28125 0.189923
877 2 0.249998 0.249994 0.227897
878 2 0.333331 0.249995 0.265872
879 2 0.29166 0.249989 0.303845
880 2 0.312499 0.281246 0.227895
881 2 0.27083 0.281241 0.265868
882 2 0.35416 0.281242 0.303844
883 2 0.24999 0.249985 0.34182
884 2 0.333328 0.249993 0.379799
885 2 0.291663 0.249994 0.417822
886 2 0.312485 0.281234 0.341816
887 2 0.270816 0.281232 0.379794
888 2 0.354162 0.281253 0.41782
889 2 0.25 0.3125 0
890 2 0.333334 0.3125 0.0380237
891 2 0.291667 0.312499 0.0759985
892 2 0.3125 0.34375 0
893 2 0.270834 0.343749 0.0380232
894 2 0.354168 0.34375 0.075999
895 2 0.25 0.312498 0.113973
896 2 0.333335 0.312499 0.151947
897 2 0.291667 0.312497 0.18992
898 2 0.312501 0.343749 0.113972
899 2 0.270834 0.343748 0.151945
900 2 0.354168 0.34375 0.189919
901 2 0.249999 0.312494 0.227894
902 2 0.333331 0.312494 0.265865
903 2 0.291657 0.312486 0.303838
904 2 0.312499 0.343745 0.22789
905 2 0.27083 0.343742 0.265865
906 2 0.354157 0.343739 0.303832
907 2 0.249984 0.312482 0.341815
908 2 0.333305 0.31248 0.379788
909 2 0.291645 0.312485 0.417814
910 2 0.312475 0.343729 0.341805
911 2 0.270797 0.343725 0.379786
912 2 0.354137 0.343739 0.417806
913 2 0.25 0.375 0
914 2 0.333334 0.375 0.0380233
915 2 0.291667 0.374999 0.0759977
916 2 0.3125 0.40625 0
917 2 0.270834 0.40625 0.0380229
918 2 0.354168 0.40625 0.0759983
919 2 0.250001 0.374999 0.113972
920 2 0.333334 0.374999 0.151944
921 2 0.291667 0.374997 0.189917
922 2 0.312501 0.406249 0.113971
923 2 0.270834 0.406249 0.151944
924 2 0.354167 0.406249 0.189916
925 2 0.25 0.374996 0.227892
926 2 0.333328 0.374994 0.265859
927 2 0.291657 0.374989 0.303835
928 2 0.312498 0.406247 0.227888
929 2 0.270831 0.406245 0.265864
930 2 0.35415 0.40624 0.303825
931 2 0.249984 0.374987 0.341813
932 2 0.333269 0.374965 0.37977
933 2 0.291594 0.37497 0.417807
934 2 0.312474 0.406237 0.341804
935 2 0.270793 0.406235 0.379785
936 2 0.354011 0.406195 0.417787
937 2 0.25 0.4375 0
938 2 0.333334 0.4375 0.038023
939 2 0.291668 0.4375 0.0759971
940 2 0.3125 0.46875 0
941 2 0.270834 0.46875 0.0380228
942 2 0.354168 0.46875 0.075998
943 2 0.250001 0.437499 0.113971
944 2 0.333334 0.4375 0.151943
945 2 0.291667 0.437499 0.189916
946 2 0.312501 0.46875 0.11397
947 2 0.270835 0.46875 0.151944
948 2 0.354166 0.46875 0.189915
949 2 0.250001 0.437498 0.227892
950 2 0.333326 0.437497 0.265858
951 2 0.291656 0.437496 0.303835
952 2 0.312498 0.46875 0.227888
953 2 0.270831 0.46875 0.265864
954 2 0.354147 0.46875 0.303826
955 2 0.249985 0.437495 0.341813
956 2 0.333269 0.437487 0.379773
957 2 0.291565 0.437486 0.417808
958 2 0.312473 0.46875 0.341805
959 2 0.270793 0.46875 0.379786
960 2 0.353973 0.46875 0.417792
1153 2 0.375 0 0
1154 2 0.458333 -5.42591e-08 0.0380247
1314 2 0.479207 0.40631 0.303915
1156 2 0.4375 0.03125 0
1157 2 0.395833 0.0312499 0.0380247
1158 2 0.479166 0.0312498 0.0760011
1313 2 0.395827 0.40625 0.265856
1312 2 0.437508 0.406258 0.227908
1311 2 0.416666 0.375003 0.303829
1162 2 0.4375 0.0312499 0.113977
1163 2 0.395833 0.03125 0.151953
1164 2 0.479166 0.03125 0.189928
1310 2 0.45835 0.375026 0.265895
1309 2 0.375 0.375 0.22789
1308 2 0.479174 0.406255 0.189939
1168 2 0.4375 0.0312505 0.227904
1169 2 0.395835 0.0312508 0.26588
1170 2 0.479169 0.0312518 0.303855
1307 2 0.395837 0.406251 0.151949
1172 2 0.458337 1.99447e-06 0.379807
1306 2 0.437504 0.406251 0.113977
1174 2 0.437504 0.0312527 0.341831
1175 2 0.395838 0.0312526 0.379808
1176 2 0.479169 0.0312549 0.417831
1177 2 0.375 0.0625 0
1178 2 0.458333 0.0624998 0.0380247
1179 2 0.416666 0.0624998 0.0760012
1180 2 0.4375 0.09375 0
1181 2 0.395833 0.0937499 0.0380247
1182 2 0.479166 0.0937497 0.0760011
1183 2 0.375 0.0624999 0.113977
1184 2 0.458333 0.0624999 0.151952
1185 2 0.416667 0.0625003 0.189928
1186 2 0.4375 0.0937498 0.113977
1187 2 0.395833 0.0937501 0.151953
1188 2 0.479166 0.0937501 0.189928
1189 2 0.375 0.0625004 0.227904
1190 2 0.458334 0.0625015 0.26588
1191 2 0.416669 0.0625023 0.303856
1192 2 0.4375 0.0937511 0.227904
1193 2 0.395835 0.0937514 0.26588
1194 2 0.479168 0.0937536 0.303855
1195 2 0.375004 0.0625021 0.341831
1196 2 0.458337 0.062506 0.379807
1197 2 0.416671 0.0625052 0.417832
1198 2 0.437504 0.0937554 0.341832
1199 2 0.395839 0.0937554 0.379808
1200 2 0.479169 0.0937609 0.417832
1201 2 0.375 0.125 0
1202 2 0.458333 0.125 0.0380246
1203 2 0.416666 0.125 0.0760012
1204 2 0.4375 0.15625 0
1205 2 0.395833 0.15625 0.0380247
1206 2 0.479166 0.15625 0.076001
1207 2 0.375 0.125 0.113977
1208 2 0.458333 0.125 0.151952
1209 2 0.416667 0.125001 0.189928
1210 2 0.4375 0.15625 0.113977
1211 2 0.395833 0.15625 0.151952
1212 2 0.479166 0.156251 0.189928
1213 2 0.375 0.125001 0.227904
1214 2 0.458334 0.125003 0.26588
1215 2 0.416669 0.125004 0.303856
1216 2 0.4375 0.156252 0.227904
1217 2 0.395834 0.156252 0.26588
1218 2 0.479168 0.156256 0.303856
1219 2 0.375004 0.125003 0.341831
1220 2 0.458338 0.125011 0.379808
1221 2 0.416671 0.12501 0.417832
1222 2 0.437504 0.156259 0.341832
1223 2 0.395839 0.156258 0.379808
1224 2 0.479169 0.15627 0.417832
1225 2 0.375 0.1875 0
1226 2 0.458333 0.1875 0.0380246
1227 2 0.416667 0.1875 0.0760011
1228 2 0.4375 0.21875 0
1229 2 0.395834 0.21875 0.0380246
1230 2 0.479167 0.21875 0.076001
1231 2 0.375 0.1875 0.113976
1232 2 0.458333 0.1875 0.151952
1233 2 0.416667 0.187502 0.189928
1234 2 0.437501 0.218751 0.113977
1235 2 0.395834 0.218751 0.151952
1236 2 0.479167 0.218751 0.189928
1237 2 0.375 0.187501 0.227903
1238 2 0.458334 0.187505 0.26588
1239 2 0.416668 0.187505 0.303856
1240 2 0.437501 0.218754 0.227904
1241 2 0.395834 0.218753 0.265878
1242 2 0.479167 0.21876 0.303857
1243 2 0.375002 0.187502 0.34183
1244 2 0.458339 0.187518 0.37981
1245 2 0.416672 0.187516 0.417832
1246 2 0.437503 0.218761 0.341833
1247 2 0.395838 0.218759 0.379807
1248 2 0.47917 0.218785 0.417835
1249 2 0.375 0.25 0
1250 2 0.458334 0.25 0.0380247
1251 2 0.416668 0.25 0.076001
1252 2 0.4375 0.28125 0
1253 2 0.395834 0.28125 0.0380244
1254 2 0.479168 0.28125 0.0760013
1255 2 0.375001 0.250001 0.113976
1256 2 0.458335 0.250001 0.151952
1257 2 0.416669 0.250003 0.189928
1258 2 0.437502 0.281251 0.113977
1259 2 0.395836 0.281252 0.151951
1260 2 0.479169 0.281253 0.189929
1261 2 0.375001 0.250001 0.2279
1262 2 0.458334 0.250008 0.265882
1263 2 0.416666 0.250005 0.303854
1264 2 0.437503 0.281257 0.227904
1265 2 0.395834 0.281253 0.265874
1266 2 0.479166 0.281265 0.303862
1267 2 0.374996 0.249998 0.341825
1268 2 0.458339 0.250025 0.379812
1269 2 0.416672 0.250024 0.417831
1270 2 0.437497 0.28126 0.341832
1271 2 0.395828 0.281254 0.379801
1272 2 0.479171 0.281314 0.417839
1273 2 0.375 0.3125 0
1274 2 0.458334 0.3125 0.0380248
1275 2 0.416668 0.312501 0.0760009
1276 2 0.4375 0.34375 0
1277 2 0.395835 0.34375 0.0380242
1278 2 0.479169 0.343751 0.0760019
1279 2 0.375002 0.312501 0.113975
1280 2 0.458337 0.312503 0.151954
1281 2 0.416671 0.312505 0.189928
1282 2 0.437503 0.343752 0.113977
1283 2 0.395837 0.343752 0.15195
1284 2 0.479173 0.343756 0.189933
1285 2 0.375002 0.312501 0.227896
1286 2 0.458337 0.312513 0.265882
1287 2 0.416662 0.312503 0.303846
1288 2 0.437509 0.343761 0.227907
1289 2 0.395836 0.343753 0.265866
1290 2 0.479169 0.343772 0.303861
1291 2 0.37498 0.312486 0.341813
1292 2 0.45833 0.312526 0.379814
1293 2 0.416665 0.31253 0.417824
1294 2 0.437478 0.343747 0.341813
1295 2 0.39579 0.343731 0.379783
1296 2 0.479164 0.343867 0.417841
1297 2 0.375 0.375 0
1298 2 0.458335 0.375 0.038025
1299 2 0.416669 0.375001 0.0760007
1300 2 0.4375 0.40625 0
1301 2 0.395835 0.40625 0.038024
1302 2 0.479169 0.406251 0.0760027
1303 2 0.375002 0.375 0.113973
1304 2 0.458338 0.375003 0.151956
1305 2 0.416672 0.375005 0.189927
578 2 0.208334 0.5 0.0380231
579 2 0.166668 0.5 0.0759985
584 2 0.208336 0.500001 0.151946
590 2 0.208336 0.500002 0.265868
591 2 0.16667 0.500003 0.303845
1352 2 0.458339 0.499999 0.151957
1353 2 0.416671 0.499998 0.189926
1357 2 0.374996 0.5 0.227886
1358 2 0.458346 0.499988 0.265902
1364 2 0.458156 0.500049 0.379606
193 2 0 0.5 0
194 2 0.0833341 0.5 0.0380237
195 2 0.0416684 0.5 0.0759993
196 2 0.0625 0.53125 0
197 2 0.0208341 0.53125 0.0380239
198 2 0.104168 0.53125 0.0759992
199 2 2.90183e-06 0.5 0.113974
200 2 0.0833377 0.5 0.151948
201 2 0.0416738 0.5 0.189923
202 2 0.0625025 0.53125 0.113974
203 2 0.0208374 0.53125 0.151949
204 2 0.104172 0.531251 0.189923
205 2 1.1185e-05 0.5 0.227896
206 2 0.0833447 0.500001 0.265872
207 2 0.0416829 0.500002 0.303847
208 2 0.0625084 0.531251 0.227898
209 2 0.0208461 0.531251 0.265872
210 2 0.104175 0.531254 0.303847
211 2 2.13732e-05 0.500002 0.341821
212 2 0.083335 0.500003 0.379799
213 2 0.0416644 0.500003 0.417824
214 2 0.0625105 0.531254 0.341823
215 2 0.0208442 0.531255 0.379799
216 2 0.104152 0.531256 0.417825
217 2 0 0.5625 0
218 2 0.0833338 0.5625 0.0380239
219 2 0.0416678 0.5625 0.0759997
220 2 0.0625 0.59375 0
221 2 0.0208337 0.59375 0.0380241
222 2 0.104167 0.593751 0.0759996
223 2 1.89565e-06 0.5625 0.113974
224 2 0.0833363 0.562501 0.151949
225 2 0.0416714 0.562501 0.189924
226 2 0.0625013 0.593751 0.113975
227 2 0.0208354 0.59375 0.15195
228 2 0.104169 0.593752 0.189924
229 2 7.08041e-06 0.562501 0.227898
230 2 0.0833409 0.562503 0.265873
231 2 0.0416774 0.562504 0.303848
232 2 0.0625044 0.593752 0.227899
233 2 0.0208397 0.593752 0.265875
234 2 0.10417 0.593756 0.303849
235 2 1.41031e-05 0.562505 0.341823
236 2 0.0833326 0.562508 0.3798
237 2 0.0416639 0.562507 0.417826
238 2 0.0625046 0.593757 0.341825
239 2 0.0208384 0.593758 0.379802
240 2 0.104155 0.593761 0.417826
241 2 0 0.625 0
242 2 0.0833334 0.625 0.0380241
243 2 0.041667 0.625 0.0760001
244 2 0.0625 0.65625 0
245 2 0.0208333 0.65625 0.0380243
246 2 0.104167 0.656251 0.0759999
247 2 7.5573e-07 0.625 0.113975
248 2 0.0833344 0.625001 0.15195
249 2 0.0416684 0.625001 0.189925
250 2 0.0625001 0.656251 0.113975
251 2 0.0208338 0.656251 0.151951
252 2 0.104167 0.656253 0.189925
253 2 2.54967e-06 0.625001 0.227901
254 2 0.0833358 0.625004 0.265875
255 2 0.0416702 0.625005 0.303851
256 2 0.0625006 0.656253 0.227901
257 2 0.0208343 0.656253 0.265876
258 2 0.104165 0.656258 0.30385
259 2 4.64557e-06 0.625006 0.341826
260 2 0.0833297 0.625011 0.379802
261 2 0.0416633 0.62501 0.417828
262 2 0.0624987 0.656258 0.341826
263 2 0.0208325 0.656259 0.379804
264 2 0.104159 0.656262 0.417827
265 2 0 0.6875 0
266 2 0.0833331 0.6875 0.0380242
267 2 0.0416664 0.687501 0.0760004
268 2 0.0625 0.71875 0
269 2 0.0208331 0.71875 0.0380244
270 2 0.104166 0.718751 0.0760001
1536 2 0.479169 0.96875 0.417831
272 2 0.0833329 0.687502 0.15195
273 2 0.0416663 0.687501 0.189926
274 2 0.0624993 0.718751 0.113975
275 2 0.0208327 0.718751 0.151951
276 2 0.104165 0.718753 0.189925
277 2 -3.00909e-07 0.687501 0.227902
278 2 0.0833318 0.687505 0.265876
279 2 0.0416649 0.687505 0.303852
280 2 0.0624983 0.718753 0.227901
281 2 0.0208313 0.718753 0.265877
282 2 0.104162 0.718758 0.303851
283 2 -1.91986e-06 0.687505 0.341828
284 2 0.0833282 0.687511 0.379803
285 2 0.0416633 0.687509 0.417829
286 2 0.0624955 0.718758 0.341827
287 2 0.0208293 0.718757 0.379804
288 2 0.104163 0.71876 0.417828
289 2 0 0.75 0
290 2 0.0833329 0.75 0.0380242
291 2 0.041666 0.750001 0.0760004
292 2 0.0625 0.78125 0
293 2 0.0208329 0.78125 0.0380244
294 2 0.104166 0.781251 0.0760002
1535 2 0.395838 0.96875 0.379808
296 2 0.083332 0.750002 0.151951
297 2 0.0416651 0.750002 0.189926
298 2 0.0624989 0.781251 0.113976
299 2 0.020832 0.781251 0.151951
300 2 0.104164 0.781253 0.189926
301 2 -1.9053e-06 0.750001 0.227902
302 2 0.0833299 0.750005 0.265876
303 2 0.0416626 0.750005 0.303852
304 2 0.0624972 0.781253 0.227901
305 2 0.0208299 0.781253 0.265877
306 2 0.104162 0.781257 0.303851
1534 2 0.437504 0.96875 0.341831
308 2 0.0833288 0.750009 0.379804
309 2 0.0416638 0.750007 0.417829
310 2 0.0624952 0.781256 0.341827
311 2 0.020829 0.781256 0.379804
312 2 0.104165 0.781257 0.417828
313 2 0 0.8125 0
314 2 0.0833328 0.8125 0.0380242
315 2 0.0416658 0.8125 0.0760004
316 2 0.0625 0.84375 0
317 2 0.0208328 0.84375 0.0380243
318 2 0.104166 0.843751 0.0760002
319 2 -1.09663e-06 0.8125 0.113976
320 2 0.0833316 0.812502 0.151951
321 2 0.0416644 0.812502 0.189926
322 2 0.0624986 0.843751 0.113975
323 2 0.0208316 0.843751 0.151951
324 2 0.104164 0.843752 0.189926
1533 2 0.416671 0.937499 0.417832
326 2 0.0833295 0.812504 0.265876
327 2 0.0416623 0.812504 0.303852
328 2 0.0624969 0.843752 0.227901
329 2 0.0208297 0.843752 0.265877
330 2 0.104163 0.843755 0.303852
1532 2 0.458337 0.937498 0.379807
332 2 0.0833303 0.812506 0.379804
333 2 0.0416646 0.812505 0.417829
334 2 0.0624962 0.843754 0.341828
335 2 0.0208298 0.843754 0.379804
336 2 0.104167 0.843754 0.417829
337 2 0 0.875 0
338 2 0.0833328 0.875 0.0380242
339 2 0.0416657 0.875 0.0760003
340 2 0.0625 0.90625 0
341 2 0.0208328 0.90625 0.0380243
342 2 0.104166 0.90625 0.0760003
343 2 -1.29017e-06 0.875 0.113976
344 2 0.0833314 0.875001 0.151951
345 2 0.0416642 0.875001 0.189926
346 2 0.0624986 0.90625 0.113975
347 2 0.0208314 0.90625 0.151951
348 2 0.104164 0.906251 0.189926
1531 2 0.375004 0.937499 0.341831
350 2 0.0833299 0.875003 0.265877
351 2 0.0416628 0.875003 0.303852
352 2 0.062497 0.906251 0.227901
353 2 0.0208299 0.906251 0.265877
354 2 0.104164 0.906252 0.303852
1530 2 0.479169 0.96875 0.303855
356 2 0.0833315 0.875003 0.379804
357 2 0.0416653 0.875003 0.417829
358 2 0.0624971 0.906252 0.341828
359 2 0.0208306 0.906252 0.379804
360 2 0.104167 0.906252 0.417829
361 2 0 0.9375 0
362 2 0.0833328 0.9375 0.0380242
363 2 0.0416657 0.9375 0.0760003
364 2 0.0625 0.96875 0
365 2 0.0208328 0.96875 0.0380243
366 2 0.104166 0.96875 0.0760003
1529 2 0.395835 0.96875 0.26588
368 2 0.0833314 0.9375 0.151951
369 2 0.0416642 0.9375 0.189926
370 2 0.0624985 0.96875 0.113975
371 2 0.0208314 0.96875 0.151951
372 2 0.104164 0.96875 0.189926
1528 2 0.4375 0.96875 0.227904
374 2 0.0833303 0.937501 0.265877
375 2 0.0416633 0.937501 0.303852
376 2 0.0624971 0.96875 0.227901
377 2 0.02083 0.96875 0.265877
378 2 0.104164 0.96875 0.303852
1527 2 0.41667 0.937499 0.303856
380 2 0.0833321 0.937501 0.379804