ITEM: TIMESTEP
222
ITEM: NUMBER OF ATOMS
3074
ITEM: BOX BOUNDS pp pp pp
0.0000000000000000e+00 3.8693948398131120e+01
0.0000000000000000e+00 4.4679925159782847e+01
0.0000000000000000e+00 6.0000000000000000e+01
ITEM: ATOMS id type x y z c_peratom[1] c_peratom[2] c_peratom[3] c_peratom[4] c_peratom[5] c_peratom[6]
1 2 0 0 0 -196879 -196972 48903.6 -1.7198 -92.0702 -4.90253
1693 2 19.3473 16.7554 13.6751 38296.3 44037.2 14218.4 1721.96 4236.52 8997.43
1675 2 19.3469 13.9636 20.511 40626.7 51866 23806.1 -890.806 8472.67 13622.7
4 2 2.41837 1.39625 0 -196892 -196981 48856.7 -12.0282 -97.9632 -28.4957
5 2 0.806103 1.39624 2.28146 37395.8 37191 -48081.9 -36.5725 -172.832 -30.7543
6 2 4.03058 1.39623 4.56002 39767.6 39320.2 -2110.2 -72.3438 -183.504 -87.9394
1344 2 18.4912 20.9437 25.0343 -1.15027e+06 -555505 -965225 36.2848 -451419 -20.088
1663 2 19.347 13.9625 6.83865 39143.2 40506.1 1390.78 200.743 405.928 758.499
1651 2 19.347 11.1708 20.5102 38734.8 47970.2 4828.15 118.562 2195.45 5367.42
10 2 2.41832 1.39623 6.83853 39652.4 39191.6 -515.008 -94.0295 -236.536 -83.461
11 2 0.806051 1.39623 9.11705 39529.9 39133.7 -422.133 -108.519 -279.137 -73.8349
12 2 4.03053 1.3962 11.3956 39748.5 38664.7 -376.312 -214.089 -303.814 -225.23
1343 2 15.3127 20.9437 22.785 49521.2 45838.9 -50732.9 8.17564 -10302.9 -0.604778
1645 2 19.347 11.1701 13.6743 39038.2 41143.9 1988.19 -431.97 -29.2697 709.865
1639 2 19.347 11.17 6.83859 39291.2 40167.8 366.468 -28.4419 59.2919 113.068
16 2 2.41826 1.39619 13.6741 39606.7 38495.9 -292.801 -295.303 -367.898 -232.402
17 2 0.80599 1.39619 15.9526 39498.3 38478.1 -168.26 -354.987 -369.609 -213.474
18 2 4.03051 1.39615 18.2311 40100.2 37856.7 6.3397 -446.62 -263.321 -290.829
1342 2 16.925 20.9437 20.5042 10909.3 17405.4 -157776 4.69863 -45982.1 1.26925
1621 2 19.3469 8.37755 13.6742 39491.6 40491.3 1016.81 -392.506 -88.6425 247.927
1615 2 19.347 8.37747 6.83859 39554.3 39867.5 276.333 -110.346 -74.3483 -46.4407
22 2 2.41826 1.39616 20.5097 40163.9 38027.4 -1485.38 -451.401 -250.535 -204.102
23 2 0.806018 1.39617 22.7883 38001.3 36079.8 -47477.7 -386.278 -196.59 -119.943
24 2 4.03064 1.39616 25.0697 -195936 -198412 49188 -125.02 -43.5959 -30.083
25 2 0 2.7925 0 -196872 -196964 48933.3 -5.88268 -90.0143 -15.0205
26 2 3.22447 2.79248 2.28145 37431.6 37144.3 -48159.9 -76.9408 -178.422 -93.93
27 2 1.61221 2.79248 4.56002 39679.3 39406.2 -2064.1 -85.1421 -195.453 -67.9996
28 2 2.41837 4.18874 0 -196885 -196979 48872.8 -22.844 -99.274 -52.4132
29 2 0.806104 4.18874 2.28146 37397.6 37222 -48013.4 -62.3963 -165.82 -55.1884
30 2 4.03058 4.18871 4.56001 39751.2 39355.5 -2151.16 -132.669 -200.564 -161.285
31 2 -5.00884e-05 2.79248 6.83854 39570.7 39375.3 -397.245 -80.467 -214.097 -38.8225
32 2 3.22442 2.79245 9.11704 39663.5 39006.4 -487.291 -207.069 -294.991 -206.455
33 2 1.61215 2.79245 11.3956 39526.6 38926.7 -395.863 -266.187 -349.691 -208.18
34 2 2.41832 4.18871 6.83853 39643.3 39274.3 -510.37 -162.394 -246.695 -144.186
35 2 0.806057 4.18871 9.11705 39541.4 39266.9 -388.692 -180.034 -277.409 -122.284
36 2 4.03052 4.18865 11.3955 39694.7 38783.4 -494.955 -390.034 -383.454 -417.819
1341 2 16.1076 19.5426 25.0639 -423607 -277489 55687.7 -198228 -49548.7 -3900.2
38 2 3.22436 2.79238 15.9526 39721.7 38156.1 -197.294 -594.083 -408.773 -442.951
39 2 1.6121 2.79238 18.2311 39671.2 38185.8 -67.337 -668.533 -380.982 -368.528
40 2 2.41825 4.18864 13.6741 39547.4 38682.6 -366.388 -526.087 -445.412 -426.354
41 2 0.805983 4.18865 15.9526 39432.8 38689.7 -208.334 -626.832 -435.578 -399.603
42 2 4.03048 4.18854 18.2311 39829.3 37721.8 -114.801 -909.255 -436.738 -625.494
1340 2 17.7278 19.5453 22.7763 78001.9 -2610.15 -444819 23202.1 -122570 -158756
44 2 3.22442 2.79235 22.7883 38145.4 35635.5 -47463.1 -492.482 -169.759 -174.956
45 2 1.61219 2.79238 25.0697 -195994 -198327 49211.8 -391.154 -71.012 -64.5513
46 2 2.41822 4.18856 20.5097 39876.7 37859.6 -1520.59 -911.811 -351.088 -436.553
47 2 0.805988 4.18859 22.7883 37779 35878.8 -47469 -767.171 -223.92 -251.429
48 2 4.03062 4.18856 25.0697 -196056 -198745 49205.5 -306.332 -59.2523 -64.938
49 2 0 5.58499 0 -196864 -196950 48978.9 -10.5012 -82.7059 -22.7967
50 2 3.22448 5.58497 2.28145 37415.2 37173.2 -48158.3 -110.84 -180.294 -138.695
51 2 1.61221 5.58497 4.56002 39673.9 39472 -2012.97 -111.051 -187.762 -92.7897
52 2 2.41837 6.98124 0 -196881 -196973 48890.3 -31.2098 -94.1475 -67.4432
53 2 0.806107 6.98123 2.28146 37392.1 37264.9 -47937.1 -66.6424 -143.985 -70.1227
54 2 4.03059 6.9812 4.56001 39721.3 39418.5 -2209.91 -161.744 -213.15 -204.884
55 2 -4.28134e-05 5.58497 6.83855 39592.2 39476.5 -321.771 -95.6947 -193.509 -48.5039
56 2 3.22443 5.58493 9.11704 39642.6 39154.8 -537.76 -283.674 -330.479 -288.652
57 2 1.61216 5.58492 11.3956 39534.7 39157.8 -399.314 -351.203 -369.877 -283.521
58 2 2.41833 6.9812 6.83853 39636.2 39399 -498.068 -180.596 -244.046 -169.89
59 2 0.806071 6.9812 9.11706 39579.4 39454.1 -334.913 -188.027 -252.606 -138.894
60 2 4.03053 6.98112 11.3955 39649.6 39009.9 -630.246 -460.133 -466.151 -526.496
1339 2 14.5086 19.5469 20.5073 36318.9 40250.8 -17151.2 -11159.9 -9983.48 748.968
62 2 3.22435 5.58481 15.9526 39541.2 38329.7 -342.017 -871.972 -570.845 -705.339
63 2 1.61208 5.58481 18.2311 39449 38326.2 -133.105 -982.73 -503.991 -604.404
64 2 2.41826 6.98111 13.6741 39525.6 39006.8 -425.259 -594.138 -507.75 -532.857
65 2 0.805993 6.98112 15.9526 39427.3 39048.1 -218.39 -699.362 -477.861 -523
66 2 4.03044 6.98095 18.2311 39365 37752.9 -325.901 -1257.57 -706.557 -976.588
1338 2 18.5419 20.9437 18.2361 43157.6 36928.7 79410.3 2.15696 62934.9 3.12764
68 2 3.22438 5.58473 22.7882 37682 35201.9 -47457.5 -907.076 -253.068 -330.802
69 2 1.61217 5.58478 25.0697 -196284 -198701 49233.5 -651.605 -78.6403 -114.214
70 2 2.41819 6.98096 20.5096 39324.4 37769.3 -1586.91 -1264.52 -518.391 -699.182
71 2 0.805956 6.98099 22.7883 37243.2 35630.8 -47442.3 -1044.31 -267.044 -402.537
72 2 4.03057 6.98093 25.0697 -196600 -199194 49241.3 -640.205 -97.4961 -115.921
73 2 0 8.37749 0 -196865 -196933 49008.4 -16.9905 -63.9543 -30.5544
74 2 3.22448 8.37747 2.28145 37383.1 37216.5 -48173.7 -117.58 -163.751 -161.607
75 2 1.61222 8.37746 4.56003 39664.1 39555.3 -1975.65 -99.7429 -158.269 -102.893
76 2 2.41837 9.77373 0 -196888 -196965 48885.2 -37.8741 -74.2308 -74.8362
77 2 0.806113 9.77372 2.28146 37367.1 37310.8 -47923.6 -51.2205 -96.2691 -81.9429
78 2 4.0306 9.77369 4.56001 39675.8 39508.5 -2300.83 -147.236 -198.437 -217.576
1337 2 15.3159 20.9437 15.9511 38363 35667.7 -28804 4.8845 -4506.21 4.26651
80 2 3.22444 8.37741 9.11703 39635.4 39360.4 -580.906 -278.545 -338.982 -312.802
81 2 1.61219 8.37741 11.3956 39592.5 39448.1 -376.914 -321.811 -343.757 -303.323
82 2 2.41835 9.77369 6.83853 39634 39545.2 -512.912 -143.267 -205.43 -176.075
83 2 0.806097 9.7737 9.11706 39649 39649.8 -310.134 -134.308 -182.967 -153.368
84 2 4.03056 9.77361 11.3955 39616.8 39321.7 -740.595 -391.55 -482.452 -536.672
85 2 -7.45045e-05 8.37742 13.6741 39571.1 39573.4 -204.961 -363.699 -313.15 -318.849
86 2 3.22436 8.37727 15.9526 39396.6 38722.1 -474.151 -879.453 -700.473 -859.156
87 2 1.61209 8.37727 18.2311 39257.1 38661.5 -174.465 -989.051 -601.415 -784.397
88 2 2.41831 9.77361 13.6741 39567.3 39410.1 -440.521 -459.617 -474.983 -547.581
89 2 0.806044 9.77361 15.9526 39544.3 39478.1 -178.604 -516.238 -415.962 -581.05
90 2 4.03046 9.77339 18.231 38826.2 38190.9 -569.319 -1185.37 -941.184 -1213.06
1336 2 16.9288 20.9437 13.6745 39763.7 40624.8 3661.06 2.5007 10661 4.21291
92 2 3.22432 8.3771 22.7882 36537.2 34817.1 -47492.9 -1320.44 -415.554 -546.329
93 2 1.61214 8.37717 25.0697 -197258 -199050 49272.6 -856.796 -95.5063 -166.439
94 2 2.4182 9.77338 20.5096 38518.8 37983.7 -1681.12 -1181.64 -682.09 -941.727
95 2 0.805968 9.7734 22.7883 36170 35502.9 -47407.7 -916.668 -310.452 -568.566
96 2 4.03048 9.7733 25.0697 -198207 -199496 49289.6 -1301.8 -176.378 -198.534
97 2 0 11.17 0 -196889 -196920 48976.9 -26.4705 -28.4272 -42.0021
98 2 3.22449 11.17 2.28145 37324.3 37269.1 -48258.6 -96.3634 -113.3 -166.379
99 2 1.61224 11.17 4.56002 39640.7 39643.7 -2028.09 -59.0917 -93.2645 -114.198
100 2 2.41837 12.5662 0 -196920 -196959 48820.5 -43.3352 -32.9867 -77.4429
101 2 0.806124 12.5662 2.28146 37308.8 37353.8 -48068.1 -25.107 -13.5024 -97.3423
102 2 4.03061 12.5662 4.56 39597.8 39614.1 -2478.21 -92.9671 -132.358 -210.698
1335 2 16.1214 19.5474 18.2286 38007.5 30974.3 -59231.1 685.531 -11923.7 -11453.4
104 2 3.22448 11.1699 9.11702 39626.5 39586.9 -657.483 -185.612 -277.274 -308.474
105 2 1.61223 11.1699 11.3956 39672.8 39728.5 -395.543 -184.715 -230.238 -317.759
106 2 2.41838 12.5662 6.83852 39607.3 39689.9 -644.301 -63.2391 -104.584 -189.339
107 2 0.80614 12.5662 9.11704 39706.7 39818 -431.751 -33.2264 -39.9143 -203.542
108 2 4.03063 12.5661 11.3955 39513.3 39655 -890.877 -186.558 -353.142 -495.112
109 2 -1.28704e-05 11.1699 13.6741 39768.3 39891.1 -191.303 -187.626 -157.643 -372.973
110 2 3.22444 11.1698 15.9525 39279.1 39270.4 -552.003 -527.619 -638.422 -848.161
111 2 1.61218 11.1698 18.2311 39095.9 39137.3 -191.428 -516.867 -514.2 -858.262
112 2 2.4184 12.5661 13.674 39525.3 39792.2 -536.956 -147.324 -262.504 -539.545
113 2 0.80616 12.5661 15.9526 39571.8 39856 -249.841 -82.6933 -143.166 -636.945
114 2 4.03057 12.5659 18.231 38158.8 39014.2 -736.189 -480.066 -829.944 -1152.81
115 2 -7.53057e-05 11.1697 20.5097 38915.1 38801.7 -1445.29 -428.706 -307.724 -821.944
116 2 3.2243 11.1695 22.7882 34426.7 34965.4 -47608.4 -1398.44 -669.533 -820.738
117 2 1.61212 11.1696 25.0697 -199582 -198942 49320.7 -889.016 -147.071 -207.605
118 2 2.41832 12.5659 20.5096 37333.6 38622.6 -1807.39 -299.603 -587.049 -1044.66
119 2 0.806092 12.5658 22.7882 34177 35787.2 -47468.3 53.222 -258.059 -744.332
120 2 4.03032 12.5657 25.0696 -201569 -199180 49332.5 -2407.74 -361.435 -305.094
121 2 0 13.9625 0 -196947 -196922 48842.5 -36.6912 27.1471 -56.0047
122 2 3.2245 13.9625 2.28145 37225 37323.6 -48484.3 -55.6002 -16.2734 -156.691
123 2 1.61226 13.9625 4.56001 39578.5 39730 -2269.04 -4.8068 25.1243 -135.549
124 2 2.41837 15.3587 0 -196984 -196963 48669.9 -44.0534 31.7659 -72.9343
125 2 0.806137 15.3587 2.28145 37205.2 37394.1 -48438.2 -0.0385866 111.791 -108.906
126 2 4.03064 15.3587 4.55998 39460.7 39719.2 -2797.36 -22.4754 5.05236 -186.322
127 2 2.82679e-05 13.9625 6.83852 39676.3 39807.8 -605.114 32.6094 87.6084 -164.149
128 2 3.22453 13.9624 9.11699 39523.7 39796.5 -886.388 -32.4132 -92.2156 -306.073
129 2 1.61232 13.9624 11.3955 39626.2 39958 -636.563 34.3405 42.7103 -363.673
130 2 2.41842 15.3587 6.83849 39489.1 39819 -997.157 30.3066 94.874 -206.241
131 2 0.806204 15.3587 9.11699 39626.9 39952 -877.292 91.3172 240.799 -279.007
132 2 4.03072 15.3586 11.3954 39108.4 39956.2 -1236.48 80.795 21.9002 -426.429
133 2 9.72646e-05 13.9624 13.674 39814.9 40126.2 -463.959 117.88 203.833 -486.368
134 2 3.22459 13.9623 15.9525 38673.6 39827.3 -783.697 91.6612 -204.742 -764.874
135 2 1.61238 13.9623 18.231 38116.9 39660.8 -467.8 419.755 28.5767 -875.497
136 2 2.41854 15.3586 13.674 38939.5 40122.8 -982.663 282.951 321.967 -522.794
137 2 0.806371 15.3586 15.9525 38604.1 40193.8 -858.993 637.144 704.453 -699.363
138 2 4.03076 15.3584 18.2309 36897.8 39938.2 -920.681 261.543 -300.885 -910.719
139 2 0.000178521 13.9622 20.5096 37184.3 39152.4 -1745.24 955.073 261.613 -969.866
140 2 3.22435 13.962 22.7881 32226.6 35992.7 -47644.9 -765.589 -812.313 -1002.8
141 2 1.61212 13.9621 25.0697 -202661 -198118 49359.9 -698.146 -233.022 -260.765
142 2 2.41855 15.3584 20.5095 35447.1 39587.2 -1996.65 637.905 -90.459 -959.467
143 2 0.806319 15.3584 22.7881 31446.3 36691.4 -47596.9 1009.54 47.0806 -827.345
144 2 4.03016 15.3583 25.0696 -205364 -198058 49362.2 -2523.62 -661.686 -356.574
145 2 0 16.755 0 -197035 -196942 48611.3 -37.7739 100.376 -58.3803
146 2 3.22451 16.755 2.28143 37086 37372.6 -48857.9 -15.0789 123.382 -123.791
147 2 1.61229 16.755 4.55998 39450.3 39809.7 -2729.28 35.4895 208.964 -139.988
148 2 2.41837 18.1512 0 -197062 -196976 48475.5 -30.9149 105.549 -49.4163
149 2 0.806152 18.1512 2.28143 37077.6 37429.3 -48932.7 9.52113 260.126 -84.3805
150 2 4.03067 18.1512 4.55995 39276.2 39802.5 -3194.52 19.8099 192.828 -119.956
151 2 7.25975e-05 16.755 6.83847 39568.2 39894.8 -1227.79 76.3714 343.138 -218.424
152 2 3.22461 16.7549 9.11694 39186.9 39970.4 -1364.3 110.972 278.183 -269.539
153 2 1.61243 16.7549 11.3954 39121.1 40143.2 -1320.74 267.716 638.388 -372.317
154 2 2.41847 18.1512 6.83844 39242 39918.6 -1531 75.6464 395.367 -158.784
155 2 0.806279 18.1512 9.11692 39253 40054.1 -1685.86 161.564 735.856 -248.727
156 2 4.03082 18.1512 11.3954 38445.8 40197.3 -1713.26 182.803 553.368 -270.129
157 2 0.000272864 16.7549 13.6739 38959.2 40319.5 -1482.64 547.239 1157.29 -561.963
158 2 3.22479 16.7548 15.9524 37329.8 40371.4 -1229.62 528.137 623.902 -588.532
159 2 1.61266 16.7548 18.2309 35955.5 40322.2 -1021.02 1064.07 1107.27 -750.663
160 2 2.4187 18.1512 13.6739 37834.7 40420.5 -1681.01 416.56 1181.41 -366.152
161 2 0.806616 18.1512 15.9523 36646.3 40596.6 -1853.81 843.424 2034.55 -535.485
162 2 4.03095 18.1511 18.2308 35368.8 40730.7 -1093.15 436.763 403.424 -517.583
163 2 0.000544691 16.7548 20.5094 33791.9 39972.7 -2298.44 1859.07 1458.29 -930.378
164 2 3.22447 16.7546 22.788 30488.3 37344.9 -47641.9 -133.976 -749.897 -862.395
165 2 1.61214 16.7547 25.0696 -205448 -197109 49380.3 -406.943 -304.514 -266.71
166 2 2.41878 18.151 20.5094 33387.6 40563.4 -2164.54 758.078 608.496 -603.043
167 2 0.806545 18.151 22.788 28881.4 37797.3 -47669.9 995.943 546.186 -595.856
168 2 4.03005 18.1509 25.0695 -208148 -196950 49379.2 -1539.19 -927.485 -247.812
169 2 0 19.5475 0 -197110 -196964 48406.5 -17.4727 161.523 -27.7664
170 2 3.22452 19.5475 2.28142 36962.6 37403.8 -49196.8 1.61542 249.881 -50.0799
171 2 1.61231 19.5475 4.55996 39300.2 39863.1 -3187.09 26.7825 399.639 -66.2988
172 2 2.41837 20.9437 0 -197101 -196984 48376.4 -0.34644 143.425 -0.616105
173 2 0.806158 20.9437 2.28142 37009.5 37444.2 -49191.1 0.160729 341.521 -0.602658
174 2 4.03068 20.9437 4.55994 39179.3 39836.4 -3391.95 0.40156 291.536 -0.460485
175 2 0.000112 19.5475 6.83842 39354.5 39952.3 -1930.88 54.313 662.464 -115.876
176 2 3.22467 19.5475 9.11689 38796.3 40084.1 -1834.58 82.9609 652.222 -115.299
177 2 1.61252 19.5475 11.3954 38438.3 40281.3 -2059.39 181.475 1282.14 -173.053
178 2 2.41849 20.9437 6.83842 39091.1 39960.3 -1817.99 1.70598 563.567 0.402522
179 2 0.806317 20.9437 9.11688 38988.7 40101.2 -2152.67 2.84895 1035.54 0.781905
180 2 4.03087 20.9437 11.3953 38094.4 40298.8 -1951 4.28288 822.608 1.66845
181 2 0.00043237 19.5475 13.6738 37672.4 40511.2 -2656.46 371.664 2277.06 -278.917
182 2 3.22494 19.5474 15.9523 36064.6 40767.9 -1614.67 310.822 1363.93 -230.733
183 2 1.61287 19.5474 18.2308 33946.7 40889.7 -1478.92 583.295 2093.34 -312.594
184 2 2.41877 20.9437 13.6738 37228.4 40559.5 -2038.51 5.25214 1625.87 1.5547
185 2 0.806731 20.9437 15.9523 35559.2 40814.6 -2362.34 4.67617 2738.52 1.18319
186 2 4.03103 20.9437 18.2308 34650.7 41058.6 -1164.73 7.73572 739.312 1.82446
187 2 0.000826623 19.5474 20.5092 30792.9 40821.4 -2695.19 970.946 2594.75 -410.427
188 2 3.22456 19.5473 22.788 29497.8 38271 -47637.9 42.9081 -603.41 -342.251
189 2 1.61216 19.5474 25.0695 -207092 -196497 49388.7 -127.436 -328.709 -120.342
190 2 2.41887 20.9437 20.5093 32456.9 40990.9 -2227.98 5.60029 951.161 1.30228
191 2 0.806641 20.9437 22.7879 27797 38302.1 -47680.9 1.27304 809.41 0.942295
192 2 4.03002 20.9437 25.0694 -209149 -196514 49385.6 7.50529 -1025.65 0.932684
385 2 4.83674 0 0 -196900 -196964 48877.4 -9.42849 -81.3767 -20.7104
1597 2 19.347 5.58502 13.6742 39650.1 40208.9 682.989 -268.322 -12.0421 114.58
1573 2 19.347 2.79251 13.6742 39686.1 40092.7 557.138 -148.639 48.5477 67.86
388 2 7.25512 1.39625 0 -196894 -196924 48973.8 -21.3033 -50.373 -41.6953
389 2 5.64285 1.39624 2.28146 37496.1 37153.8 -48081.5 -48.5861 -139.66 -84.6841
390 2 8.86734 1.39623 4.56004 39910.3 39528.9 -1676.24 -2.96123 -32.525 -76.932
1334 2 17.7352 19.548 15.9541 41265.5 42236.6 20069.4 3461.49 23794.9 8492.46
1333 2 14.5101 19.5475 13.6731 39180.5 38029.1 -14658.3 261.597 -1260.23 -1221.21
1332 2 18.5411 20.9437 11.3965 38397.4 40725.3 12981.3 0.882824 5937.08 2.60681
394 2 7.25508 1.39622 6.83854 39907.7 39247.9 -284.075 -49.0772 -91.4418 -134.578
395 2 5.6428 1.39621 9.11705 39861 38940.5 -372.92 -125.472 -196.066 -190.049
396 2 8.86732 1.3962 11.3956 40148.3 39068.5 90.4779 -29.9207 28.7712 -201.323
1331 2 15.3165 20.9437 9.11688 39468.1 40264.7 -2711.35 1.07832 2620.85 0.642389
1330 2 16.9288 20.9437 6.83866 39198.3 40444.3 1646.55 0.216088 2401.95 -1.11803
1329 2 16.1226 19.5475 11.3955 39646.5 40620.5 -1118.13 615.405 5064.43 552.197
400 2 7.25504 1.39618 13.6741 40178 38488.3 -33.3258 -182.306 -95.9152 -301.899
401 2 5.64277 1.39616 15.9526 40136.9 38025.6 -46.9936 -344.871 -211.199 -335.017
402 2 8.86737 1.39616 18.2312 40680.5 38439.7 288.092 -19.5581 208.29 -158.938
1328 2 17.7349 19.5475 9.11741 38955.8 40761.4 5178.76 375.076 3757.08 884.161
1327 2 14.5103 19.5475 6.83836 39531 40089.8 -2915.06 168.93 1352.75 -19.4897
1326 2 18.541 20.9437 4.56018 39136.4 40208.2 1114.79 -0.0580328 1181.89 -2.23049
406 2 7.25512 1.39615 20.5097 40783.9 38067.8 -1393.48 -122.074 68.3949 -139.146
407 2 5.64288 1.39615 22.7883 38455.9 35767.7 -47474.6 -144.311 -38.2852 -80.1014
408 2 8.8675 1.39619 25.0698 -196073 -197837 49135.1 310.132 65.6509 25.1642
409 2 4.83674 2.7925 0 -196901 -196972 48857.9 -29.0068 -88.1765 -63.3531
410 2 8.06123 2.79248 2.28146 37542.9 37245.6 -47896.3 -36.1161 -81.3583 -115.5
411 2 6.44896 2.79247 4.56002 39857.7 39364.4 -2031.41 -76.7366 -133.413 -155.918
412 2 7.25512 4.18874 0 -196906 -196945 48904.4 -43.8826 -61.6022 -87.2738
413 2 5.64285 4.18872 2.28145 37481.3 37147.7 -48176.5 -96.3947 -157.032 -165.727
414 2 8.86734 4.18871 4.56003 39923.7 39502.9 -1872.66 -12.2541 -50.5558 -173.474
415 2 4.83669 2.79246 6.83853 39775.8 39156 -527.756 -140.318 -212.204 -190.047
416 2 8.06119 2.79244 9.11706 40006.3 39132.5 -217.743 -70.6285 -74.6808 -271.26
417 2 6.44891 2.79241 11.3956 39964.3 38705.9 -328.093 -242.205 -220.121 -393.114
418 2 7.25507 4.18869 6.83853 39899.5 39237.3 -484.763 -101.517 -139.341 -277.378
419 2 5.6428 4.18867 9.11703 39824.7 38982.4 -540.76 -238.3 -266.545 -366.669
420 2 8.86731 4.18865 11.3956 40148 38959.6 -225.848 -83.7307 -71.3215 -477.263
421 2 4.83663 2.79239 13.6741 39848.1 38344 -312.106 -436.778 -351.206 -456.493
422 2 8.06118 2.79236 15.9526 40384.3 38184.8 54.216 -267.42 -46.2567 -468.64
423 2 6.44891 2.79233 18.2311 40361.7 37696.1 37.6416 -498.224 -159.742 -459.445
424 2 7.25502 4.1886 13.6741 40090.6 38360.7 -334.387 -397.437 -271.876 -670.486
425 2 5.64274 4.18856 15.9526 39946.8 37903.2 -270.048 -715.789 -415.65 -724.585
426 2 8.86732 4.18855 18.2312 40583.6 37742.9 100.955 -236.122 27.436 -533.852
427 2 4.83666 2.79233 20.5097 40381.2 37653.2 -1469.52 -575.226 -196.429 -329.412
428 2 8.06131 2.79236 22.7883 38577.3 35887.2 -47461.6 144.437 124.664 -40.1945
429 2 6.44906 2.79237 25.0697 -195975 -198477 49169.8 67.4992 1.56847 -18.4225
430 2 7.25507 4.18851 20.5097 40565.5 37355.9 -1456.29 -458.092 -76.3385 -429.816
431 2 5.64284 4.18852 22.7882 38238.6 35216.6 -47455.1 -439.452 -105.371 -219.495
432 2 8.86749 4.18861 25.0698 -195975 -198158 49159.2 525.823 79.901 21.1095
433 2 4.83674 5.58499 0 -196903 -196986 48821.7 -45.6586 -97.5304 -98.6655
434 2 8.06123 5.58497 2.28145 37531 37209.3 -48127.3 -66.1497 -102.383 -202.23
435 2 6.44896 5.58495 4.56001 39839.2 39367.8 -2217.97 -123.202 -171.458 -251.139
436 2 7.25512 6.98124 0 -196927 -196981 48784.2 -65.1904 -77.2893 -131.569
437 2 5.64285 6.98121 2.28145 37446.4 37150.5 -48327.5 -132.307 -174.568 -229.278
438 2 8.86734 6.98119 4.56001 39926.6 39468.4 -2241.4 -25.759 -88.1607 -284.655
439 2 4.83669 5.58493 6.83852 39746.9 39222.6 -645.805 -204.651 -256.493 -282.198
440 2 8.06119 5.5849 9.11703 39991.3 39099 -578.855 -122.016 -170.362 -482.165
441 2 6.44891 5.58486 11.3955 39889.5 38739.4 -644.461 -379.991 -369.099 -647.948
442 2 7.25507 6.98116 6.8385 39872.6 39247.8 -811.876 -144.013 -215.597 -405.587
443 2 5.6428 6.98114 9.11701 39774.7 39088.6 -775.491 -301.848 -358.17 -488.57
444 2 8.8673 6.98109 11.3955 40108.2 38866.6 -828.015 -143.844 -253.665 -815.134
445 2 4.83662 5.58483 13.674 39717.8 38469 -545.714 -654.794 -523.072 -726.345
446 2 8.06113 5.58476 15.9526 40182.2 37780.8 -389.717 -580.229 -355.029 -992.869
447 2 6.44886 5.5847 18.2311 39955.4 37240.8 -241.801 -989.903 -473.179 -945.628
448 2 7.25501 6.98102 13.674 39915.8 38335.6 -858.643 -584.148 -552.036 -1061.34
449 2 5.64272 6.98097 15.9525 39621.9 37951.3 -645.07 -1002.94 -726.217 -1118.02
450 2 8.86724 6.9809 18.231 40132.6 36814.9 -442.909 -786.436 -431.847 -1279.81
451 2 4.8366 5.5847 20.5096 39866.6 37181.5 -1573.34 -1106.02 -411.391 -666.559
452 2 8.06125 5.58473 22.7882 38385.7 34900.2 -47446.3 -123.703 36.4474 -244.295
453 2 6.44903 5.58475 25.0697 -196117 -198958 49200.9 -76.661 -24.9265 -58.6763
454 2 7.25498 6.98085 20.5096 39821.5 36387.8 -1713.07 -1172.39 -455.201 -988.604
455 2 5.64276 6.98087 22.7882 37469.8 34410.8 -47489.5 -1032.2 -293.838 -478.923
456 2 8.86744 6.98101 25.0697 -195942 -198909 49187.7 403.76 70.0879 -55.4308
457 2 4.83674 8.37749 0 -196911 -197001 48768.4 -57.4153 -99.868 -120.729
458 2 8.06123 8.37746 2.28144 37487 37172.8 -48499.5 -96.2328 -129.129 -284.241
459 2 6.44896 8.37743 4.56 39791.9 39398.7 -2484.32 -151.904 -212.791 -319.204
460 2 7.25512 9.77373 0 -196959 -197025 48617 -80.2816 -87.7123 -161.763
461 2 5.64285 9.7737 2.28144 37383.9 37173.5 -48531.7 -142.076 -171.918 -260.736
462 2 8.86735 9.77368 4.55998 39878.4 39448.1 -2797.4 -47.5588 -145.713 -388.172
463 2 4.8367 8.37742 6.83851 39703.6 39336.1 -791.054 -221.287 -292.126 -326.353
464 2 8.06119 8.37737 9.11698 39939.7 39112.3 -1114.03 -160.254 -307.141 -668.593
465 2 6.44891 8.37732 11.3955 39787.9 38897.8 -1044.37 -432.574 -534.242 -814.625
466 2 7.25508 9.77365 6.83847 39794.6 39311.3 -1235.1 -165.957 -298.05 -484.846
467 2 5.64282 9.77362 9.11698 39696.6 39274.2 -1029.84 -291.648 -422.061 -526.845
468 2 8.86731 9.77355 11.3954 39986.8 38888 -1671.44 -182.148 -488.659 -1093.11
469 2 4.83664 8.37729 13.674 39592.9 38783.1 -797.114 -688.041 -678.075 -873.509
470 2 8.06109 8.37715 15.9525 39735.8 37608.4 -1189.68 -913.355 -851.44 -1629.42
471 2 6.4488 8.37708 18.231 39167.1 37084.5 -770.44 -1471.46 -979.337 -1533.27
472 2 7.25502 9.77348 13.6739 39670.7 38584.7 -1490.14 -616.181 -830.608 -1297.39
473 2 5.64273 9.77342 15.9525 39257.9 38386.7 -1060.25 -976.318 -994.073 -1333.99
474 2 8.86714 9.77324 18.2309 39043.7 36321.5 -1554.64 -1572.77 -1293.82 -2332.73
475 2 4.83654 8.37706 20.5096 38802.5 36921.4 -1823.7 -1631.31 -786.327 -1104.1
476 2 8.06111 8.37704 22.7881 37399.6 33412.6 -47565.7 -1125.77 -287.79 -732.192
477 2 6.44894 8.37712 25.0696 -196810 -199672 49240.4 -714.121 -104.149 -159.295
478 2 7.25485 9.77317 20.5094 38115.7 35821.5 -2327.95 -2188.48 -1201.05 -1805.22
479 2 5.64263 9.77321 22.7881 35533.6 33779.9 -47675.2 -1983.5 -701.596 -898.893
480 2 8.86727 9.77336 25.0695 -196442 -200382 49211.7 -695.571 -31.1076 -274.466
481 2 4.83674 11.17 0 -196932 -197014 48686.8 -63.1006 -84.4057 -126.337
482 2 8.06123 11.1699 2.28143 37397.6 37157.6 -48987.3 -109.412 -140.293 -327.332
483 2 6.44897 11.1699 4.55998 39706.4 39472.4 -2809.59 -141.097 -223.958 -336.182
484 2 7.25512 12.5662 0 -197005 -197070 48413.8 -83.8255 -79.624 -165.25
485 2 5.64286 12.5662 2.28144 37283.4 37216.4 -48804.4 -118.308 -127.391 -253.382
486 2 8.86736 12.5662 4.55994 39758.3 39477.4 -3458.34 -53.4683 -186.454 -417.859
487 2 4.83672 11.1699 6.83849 39638.9 39491.3 -969.773 -172.569 -277.409 -323.818
488 2 8.06121 11.1698 9.11691 39772.1 39224.5 -1739.27 -181.158 -442.036 -748.812
489 2 6.44895 11.1698 11.3954 39601.5 39200.9 -1423.13 -367.031 -617.335 -815.093
490 2 7.25511 12.5661 6.83843 39647.9 39447.4 -1687.73 -131.132 -321.876 -470.188
491 2 5.64286 12.5661 9.11695 39554.7 39520.3 -1296.85 -181.836 -380.726 -483.579
492 2 8.86734 12.566 11.3953 39600.6 39102.9 -2530.41 -224.548 -687.937 -1120.73
493 2 4.83669 11.1698 13.674 39439.4 39254.3 -984.258 -483.698 -678.473 -834.729
494 2 8.0611 11.1696 15.9523 39156.5 38061.2 -2145.88 -959.258 -1343.97 -1999.78
495 2 6.4488 11.1695 18.2309 38199.4 37732.3 -1409.03 -1457.88 -1474.22 -1900.84
496 2 7.25508 12.566 13.6738 39224 39120.2 -1975.97 -457.415 -906.24 -1176.21
497 2 5.64282 12.5659 15.9524 38775.9 39157.8 -1315.63 -536.1 -938.996 -1175.63
498 2 8.8671 12.5657 18.2306 37875.6 37194.2 -2960.1 -1863.19 -2321.69 -3040.94
499 2 4.83652 11.1695 20.5095 37267 37416.8 -2192.24 -1641.23 -1215.73 -1483.04
500 2 8.06085 11.1693 22.7879 34539.2 32053.6 -47999.8 -3250.26 -1118.32 -1578.38
501 2 6.44873 11.1695 25.0695 -198945 -200440 49274.1 -2373.11 -283.039 -354.467
502 2 7.25476 12.5656 20.5093 35981.1 36733.5 -3177.9 -2668.78 -2228.24 -2509.11
503 2 5.64249 12.5656 22.788 32378.5 34237.8 -47994.2 -2854.13 -1422.24 -1414.67
504 2 8.86686 12.5656 25.0693 -199022 -202664 49221.4 -3896.47 -344.823 -695.258
505 2 4.83674 13.9625 0 -196976 -197025 48557.8 -61.2607 -42.7494 -114.735
506 2 8.06124 13.9624 2.28141 37258.6 37171.2 -49528.6 -92.3892 -110.414 -306.218
507 2 6.44899 13.9624 4.55995 39564.2 39577.9 -3187.34 -88.7068 -169.991 -299.376
508 2 7.25512 15.3587 0 -197065 -197108 48193.1 -71.984 -45.0149 -136.749
509 2 5.64287 15.3587 2.28142 37140.4 37268.5 -49156.6 -70.2548 -29.9295 -206.481
510 2 8.86737 15.3587 4.5599 39563.2 39552.9 -4094.14 -31.2011 -167.253 -346.027
511 2 4.83676 13.9624 6.83846 39505.2 39660.5 -1239.14 -73.5548 -169.57 -292.974
512 2 8.06125 13.9624 9.11684 39460.8 39458.2 -2294.88 -117.098 -452.727 -645.933
513 2 6.44902 13.9623 11.3954 39230.6 39594.5 -1752.16 -157.787 -489.203 -668.617
514 2 7.25514 15.3587 6.83839 39397.2 39620.7 -2132.48 -50.6033 -234.644 -369.864
515 2 5.64292 15.3586 9.1169 39242.9 39770.5 -1637.99 -20.8328 -172.017 -386.049
516 2 8.86739 15.3586 11.3952 39008.8 39511.7 -3066.1 -144.662 -662.34 -817.033
517 2 4.8368 13.9623 13.6739 38994.1 39759.8 -1213.48 -93.1047 -390.667 -696.925
518 2 8.06117 13.9621 15.9522 38413.2 39098.1 -2597.41 -702.052 -1424.14 -1575.46
519 2 6.4489 13.962 18.2308 37417.4 39106 -1595.54 -764.659 -1444.82 -1529.57
520 2 7.25517 15.3585 13.6738 38503.1 39772.4 -2232.82 -159.563 -664.962 -823.783
521 2 5.64297 15.3585 15.9523 37865.9 39974.8 -1489 -18.7021 -512.964 -848.416
522 2 8.86716 15.3582 18.2305 37254.8 39263.2 -3091 -1352.24 -2430.88 -1984.56
523 2 4.83662 13.962 20.5094 36022.8 38772.4 -2301.02 -769.35 -1258.42 -1407.75
524 2 8.06049 13.9617 22.7877 29547.8 32754.4 -48864.4 -5540.01 -2954.8 -2700.07
525 2 6.44832 13.9618 25.0694 -204633 -200353 49301.7 -5332.04 -805.05 -542.174
526 2 7.2548 15.3582 20.5092 35384.3 39108.3 -3132.49 -1559.35 -2431.76 -1954.38
527 2 5.64244 15.3582 22.7879 30504.1 36147.9 -47948.7 -2065.2 -1873.05 -1537.39
528 2 8.86598 15.3579 25.0691 -210868 -203329 49211.8 -11370.6 -1828.26 -1006.48
529 2 4.83674 16.755 0 -197041 -197037 48385.8 -47.9024 21.647 -84.0528
530 2 8.06125 16.7549 2.2814 37088.7 37202.3 -50032 -53.3372 -35.8302 -218.559
531 2 6.44902 16.7549 4.55993 39362.6 39685.4 -3590.37 -25.6411 -43.6757 -212.54
532 2 7.25512 18.1512 0 -197125 -197134 48001.8 -42.7824 4.14414 -78.4156
533 2 5.64288 18.1512 2.28141 36986.9 37312.4 -49514.5 -24.1421 94.1191 -119.066
534 2 8.86739 18.1512 4.55987 39351.8 39634.3 -4567.67 -6.47426 -101.725 -194.366
535 2 4.8368 16.7549 6.83843 39254.1 39811.5 -1627.47 22.0185 52.2456 -224.517
536 2 8.0613 16.7549 9.11678 39019.2 39718.2 -2703.12 -22.0056 -312.606 -418.647
537 2 6.4491 16.7549 11.3953 38624.1 39963.5 -2058.49 34.7906 -157.656 -439.136
538 2 7.25517 18.1512 6.83835 39099.8 39770 -2500.73 5.5878 -78.9985 -205.467
539 2 5.64298 18.1512 9.11686 38813.1 39969.3 -2003.65 60.4392 133.655 -224.423
540 2 8.86744 18.1511 11.3951 38376.1 39877.6 -3260.8 -44.3236 -480.677 -396.759
541 2 4.83693 16.7549 13.6739 38121.4 40215.2 -1549.51 203.714 175.674 -487.664
542 2 8.06127 16.7547 15.9521 37470.4 40162.6 -2556.92 -329.039 -1109.37 -888.683
543 2 6.44904 16.7547 18.2307 36411.3 40386.2 -1527.19 -204.718 -1047.47 -920.169
544 2 7.25526 18.1511 13.6737 37668.2 40287.9 -2329.39 12.4149 -280.419 -406.875
545 2 5.6431 18.1511 15.9523 36747.5 40618.4 -1612.23 173.145 58.8274 -443.411
546 2 8.86723 18.151 18.2305 36459.6 40909.7 -2614.12 -697.556 -2041.24 -835.702
547 2 4.83678 16.7546 20.5094 34833.1 40193.7 -2268.31 -88.4769 -953.765 -981.22
548 2 8.06035 16.7543 22.7876 28713.8 36417.5 -48606.1 -3392.83 -3688.52 -2508.49
549 2 6.44794 16.7544 25.0693 -210329 -198501 49331.9 -4967.87 -1512.08 -531.943
550 2 7.25489 18.1509 20.5091 34964.8 40975.7 -2833.61 -683.71 -2190.88 -974.081
551 2 5.64247 18.1509 22.7879 29898.8 37960.4 -47865.8 -941.823 -2005.03 -990.351
552 2 8.86529 18.1506 25.069 -220434 -199101 49217.3 -8330.29 -3258.75 -804.108
553 2 4.83674 19.5475 0 -197097 -197047 48243.9 -19.0443 78.7512 -32.2051
554 2 8.06125 19.5475 2.28139 36961.1 37228.1 -50353.6 -16.1286 34.7363 -80.6597
555 2 6.44904 19.5475 4.55991 39193.9 39756.2 -3880.6 1.03767 77.8324 -78.6918
556 2 7.25512 20.9437 0 -197152 -197143 47921.4 -0.684268 28.9821 -1.35417
557 2 5.64289 20.9437 2.28141 36915.2 37330.3 -49677.9 -0.67009 155.787 -1.55092
558 2 8.8674 20.9437 4.55986 39255.6 39670.6 -4748.55 -0.442769 -64.6064 -1.49729
559 2 4.83684 19.5475 6.8384 39009.3 39907.1 -1959 29.8118 267.932 -88.0621
560 2 8.06133 19.5474 9.11675 38658.8 39888.2 -2925.96 9.97364 -158.716 -142.407
561 2 6.44916 19.5474 11.3953 38096.2 40195.8 -2268.84 50.7917 146.419 -153.259
562 2 7.25519 20.9437 6.83834 38958.2 39831.2 -2652.86 0.885291 1.52657 -0.0845391
563 2 5.64301 20.9437 9.11684 38596.5 40049.7 -2173.01 2.60542 287.441 1.09873
564 2 8.86746 20.9437 11.3951 38087.7 40020.3 -3293.01 4.01915 -377.27 2.18656