ITEM: TIMESTEP
100
ITEM: NUMBER OF ATOMS
3074
ITEM: BOX BOUNDS pp pp pp
0.0000000000000000e+00 3.8693948398131120e+01
0.0000000000000000e+00 4.4679925159782847e+01
0.0000000000000000e+00 6.0000000000000000e+01
ITEM: ATOMS id type x y z c_peratom[1] c_peratom[2] c_peratom[3] c_peratom[4] c_peratom[5] c_peratom[6]
1 2 0 0 0 -196865 -196866 49174.3 0.0803682 -0.801127 0.16953
1693 2 19.3473 16.7553 13.6744 38623.1 44752.1 8175.96 1631.17 3680.29 7384.84
1675 2 19.3467 13.9632 20.5102 41101 49730 21197.5 -1652.55 7841.92 10118.1
4 2 2.41837 1.39625 0 -196865 -196874 49152.3 -1.41028 -6.75139 -3.93496
5 2 0.806124 1.39625 2.28147 37522.9 37528.4 -47368.9 -5.25158 -6.72582 -3.08211
6 2 4.03061 1.39624 4.56006 39636 39595.4 -1985.78 -53.2804 -69.4022 -44.6568
1344 2 18.4907 20.9438 25.0319 -1.16248e+06 -558990 -964866 578.892 -459944 -116.463
1663 2 19.347 13.9625 6.83843 39484.6 39721.3 -1778.71 -159.086 51.244 -130.323
1651 2 19.3469 11.1704 20.5098 39059.7 46403.8 4347.91 -330.766 1880.38 3340.37
10 2 2.41837 1.39624 6.83856 39539.4 39520.4 -601.265 -56.9843 -73.5758 -44.9018
11 2 0.806116 1.39624 9.11708 39679.8 39688.2 259.942 -57.3636 -68.7594 -48.0424
12 2 4.03059 1.39623 11.3956 39490 39231 56.7727 -170.958 -207.595 -148.809
1343 2 15.3127 20.9437 22.7839 49205.8 46550.8 -53020.8 38.0051 -13861.6 -14.3823
1645 2 19.3469 11.1699 13.674 39836.6 40467.9 1209.2 -830.784 -459.887 -938.265
1639 2 19.347 11.1699 6.83847 39363.7 39448.7 -1651.74 -279.361 -78.9188 -537.715
16 2 2.41834 1.39623 13.6741 39325.4 39150.5 -10.9621 -194.375 -178.343 -158.287
17 2 0.80609 1.39622 15.9527 39249.5 39136.1 83.5291 -219.142 -130.697 -157.384
18 2 4.03056 1.3962 18.2312 39124 38444.3 -373.781 -384.514 -155.535 -215.857
1342 2 16.9249 20.9437 20.5028 10579.5 18226.1 -163040 29.6823 -49353.1 -27.7155
1621 2 19.3469 8.3774 13.6741 40117.2 39306.8 967.582 -498.792 -325.146 -693.085
1615 2 19.347 8.37745 6.83852 39528.9 39372.4 -818.943 -208.339 -90.807 -284.777
22 2 2.41833 1.3962 20.5097 39314.4 38766.1 -1253.11 -339.189 -56.2646 -148.201
23 2 0.8061 1.39621 22.7883 37167.8 36564.6 -46965.1 -254.895 -19.4806 -124.482
24 2 4.03062 1.3962 25.0698 -197102 -198029 49146.5 -18.1618 2.09663 -43.2104
25 2 0 2.7925 0 -196864 -196865 49177 0.249787 -0.187167 0.782204
26 2 3.22449 2.79249 2.28147 37479.7 37482.1 -47442.7 -30.4125 -26.3845 -22.8612
27 2 1.61225 2.79249 4.56006 39693.8 39705 -1869.34 -29.5579 -27.3874 -20.6883
28 2 2.41837 4.18874 0 -196863 -196874 49154.8 -1.63555 -5.86613 -4.39652
29 2 0.806124 4.18874 2.28147 37523.7 37530.8 -47364.1 -6.46678 -4.66812 -2.64235
30 2 4.03061 4.18874 4.56006 39625.9 39621.3 -1998.54 -87.5891 -71.3253 -66.4109
31 2 -2.11349e-06 2.79249 6.83856 39617.7 39638.9 -490.411 -25.923 -23.9598 -21.0405
32 2 3.22448 2.79248 9.11707 39602.4 39552.4 123.22 -147.867 -136.037 -121.244
33 2 1.61223 2.79248 11.3956 39513.2 39518 136.813 -151.595 -121.338 -129.285
34 2 2.41836 4.18874 6.83855 39536 39558.1 -604.383 -84.0033 -67.1029 -61.3775
35 2 0.806117 4.18874 9.11708 39677.3 39722.6 252.819 -74.303 -56.3095 -64.0851
36 2 4.03059 4.18871 11.3956 39492.8 39398.4 20.0063 -295.612 -212.365 -247.972
1341 2 16.1076 19.5424 25.0624 -431542 -278515 52079.8 -200732 -50977.6 -4751.71
38 2 3.22444 2.79244 15.9527 39184.4 38899.2 56.7406 -442.499 -224.652 -307.291
39 2 1.61219 2.79244 18.2312 39028.5 38806.8 -428.931 -456.435 -144.292 -258.369
40 2 2.41833 4.18871 13.6741 39341 39342.3 -28.629 -312.837 -185.888 -250.572
41 2 0.806083 4.1887 15.9527 39290.2 39331.2 101.028 -351.89 -166.272 -248.193
42 2 4.03053 4.18864 18.2312 38874.6 38368.1 -451.43 -798.585 -268.791 -447.181
1340 2 17.7277 19.5451 22.7745 76377.9 -2424.11 -451451 21216.8 -128089 -159959
44 2 3.22446 2.79242 22.7883 37160.8 36336.3 -46885.1 -363.108 -11.8648 -152.78
45 2 1.61224 2.79242 25.0698 -197113 -198146 49138.8 -189.383 5.9868 -83.0768
46 2 2.41829 4.18865 20.5097 39117.8 38634.4 -1210.26 -681.42 -117.519 -309.69
47 2 0.80607 4.18865 22.7883 37074.5 36335.2 -46895.4 -468.921 -43.1257 -238.053
48 2 4.03061 4.18863 25.0698 -197093 -198323 49169.7 -160.857 13.543 -82.2956
49 2 0 5.58499 0 -196864 -196863 49178.7 -0.0058889 0.758208 1.06989
50 2 3.22449 5.58499 2.28147 37469.5 37487 -47444.5 -36.2436 -25.8794 -22.4324
51 2 1.61225 5.58499 4.56006 39683.1 39708.1 -1873.81 -30.1595 -22.6157 -20.1845
52 2 2.41837 6.98124 0 -196862 -196872 49158.6 -1.03764 -4.12019 -1.72529
53 2 0.806124 6.98124 2.28147 37517.5 37524.8 -47365.3 -2.28439 -0.881613 -1.29702
54 2 4.03061 6.98123 4.56006 39605.8 39645.6 -2004.31 -92.1024 -68.4819 -59.3286
55 2 -1.33566e-06 5.58499 6.83856 39600.9 39629.7 -504.049 -21.1318 -15.6412 -23.6355
56 2 3.22448 5.58498 9.11707 39619.3 39657.9 131.02 -168.411 -118.275 -128.923
57 2 1.61223 5.58497 11.3956 39561.7 39640.9 158.767 -155.132 -102.543 -132.931
58 2 2.41837 6.98123 6.83855 39521.8 39582.7 -605.394 -73.5342 -53.797 -52.1801
59 2 0.806118 6.98123 9.11708 39689.9 39750.2 267.579 -55.3433 -45.6743 -53.2456
60 2 4.03059 6.9812 11.3956 39494.5 39578.7 -6.70037 -338.841 -210.371 -268.712
1339 2 14.5086 19.5468 20.5065 35658.3 42076.5 -19853.9 -11094.1 -14743.4 -38.9025
62 2 3.22443 5.58492 15.9527 39116.6 39082.6 9.07121 -639.753 -305.717 -430.674
63 2 1.61217 5.58491 18.2312 38972.3 38906.2 -390.076 -650.219 -231.687 -366.447
64 2 2.41834 6.9812 13.6741 39421.6 39572.1 0.793366 -350.481 -204.957 -261.37
65 2 0.806078 6.9812 15.9527 39409.8 39535.1 176.772 -397.985 -225.844 -260.382
66 2 4.0305 6.9811 18.2312 38474.4 38300.3 -564.414 -1113.5 -422.415 -674.05
1338 2 18.5417 20.9437 18.2344 43559.3 39469.2 66059.8 -2.10658 58799.5 -7.08037
68 2 3.22442 5.58485 22.7883 36797 35937.7 -46863.6 -630.234 -34.4033 -261.08
69 2 1.61221 5.58485 25.0698 -197246 -198487 49123.1 -320.367 -4.18914 -95.58
70 2 2.41826 6.9811 20.5097 38654.5 38397.7 -1205.52 -847.282 -206.55 -462.872
71 2 0.806042 6.98108 22.7884 36777.2 35996.3 -46872.3 -543.031 -114.495 -280.744
72 2 4.03058 6.98105 25.0698 -197368 -198792 49178.8 -447.873 -6.82507 -114.982
73 2 0 8.37749 0 -196866 -196863 49172.8 -1.51518 2.19478 -0.212759
74 2 3.22449 8.37749 2.28147 37458.9 37484.9 -47435.2 -25.8978 -20.0969 -10.1287
75 2 1.61225 8.37749 4.56006 39668 39692.4 -1876.5 -11.7188 -13.2805 -11.182
76 2 2.41837 9.77373 0 -196863 -196870 49155.8 -2.01054 -2.11245 -0.920765
77 2 0.806124 9.77373 2.28147 37494.9 37502.7 -47383.2 6.08219 1.32405 -5.44282
78 2 4.03061 9.77373 4.56006 39589.4 39657.6 -1974.92 -57.6525 -44.831 -24.9165
1337 2 15.3158 20.9437 15.9504 38501.5 37063.2 -32838.4 14.8193 -7584.42 11.2882
80 2 3.22448 8.37747 9.11707 39653.2 39755.5 187.563 -126.579 -84.4653 -86.0227
81 2 1.61223 8.37747 11.3956 39698.1 39778.7 275.65 -108.103 -93.2679 -76.7299
82 2 2.41837 9.77373 6.83856 39528.8 39589.6 -564.995 -23.592 -30.5352 -19.8454
83 2 0.806121 9.77373 9.11708 39770.3 39781.8 367.85 -13.9102 -54.7682 -14.0388
84 2 4.0306 9.77371 11.3956 39639.7 39762.2 114.771 -243.048 -171.179 -153.968
85 2 -1.95084e-05 8.37747 13.6742 39731.7 39775 256.438 -131.975 -138.731 -74.803
86 2 3.22442 8.37741 15.9527 39072.6 39316.1 -35.6551 -664.713 -370.755 -492.409
87 2 1.61216 8.37739 18.2312 38781.6 38955.6 -370.425 -566.129 -290.134 -441.968
88 2 2.41835 9.7737 13.6741 39661.6 39780 145.354 -161.152 -157.002 -139.79
89 2 0.806089 9.7737 15.9527 39546.7 39670.4 318.703 -77.6012 -160.095 -170.002
90 2 4.0305 9.77356 18.2312 38156.8 38544.5 -645.523 -1017.58 -557.556 -804.455
1336 2 16.9287 20.9437 13.6737 40911 40996.2 -3723.19 -4.39097 7980.54 -17.6859
92 2 3.22437 8.37726 22.7883 35929.4 35415.8 -46933 -1006.97 -134.773 -385.685
93 2 1.61218 8.37726 25.0699 -197918 -198984 49086.1 -389.253 -27.6998 -102.635
94 2 2.41825 9.77354 20.5097 38094.9 38312.2 -1257.01 -753.879 -359.425 -581.703
95 2 0.806028 9.77351 22.7884 36038.2 35648.3 -46920.9 -387.501 -221.269 -287.457
96 2 4.0305 9.77345 25.0698 -198616 -199361 49154.9 -1052.31 -26.6292 -198.19
97 2 0 11.17 0 -196873 -196863 49150.6 -6.2397 5.65344 -4.59154
98 2 3.22449 11.17 2.28147 37432 37469.1 -47439.2 -4.34823 -8.79042 -3.9217
99 2 1.61225 11.17 4.56006 39635.9 39663.8 -1891.63 15.0925 -8.16196 -12.869
100 2 2.41837 12.5662 0 -196873 -196871 49127.4 -6.63958 4.9433 -5.07388
101 2 0.806126 12.5662 2.28147 37436.5 37472.6 -47447.4 23.7027 11.0174 -17.7867
102 2 4.03062 12.5662 4.56006 39570.2 39657.8 -1936 -2.89489 -5.83437 0.113622
1335 2 16.1214 19.5473 18.2276 37925.2 32021.8 -63134.3 396.031 -14483.3 -11917.4
104 2 3.22449 11.17 9.11707 39738.4 39830.3 298.59 -52.6522 -53.7505 -31.1055
105 2 1.61224 11.17 11.3956 39838.2 39870 378.952 10.2662 -64.1111 -20.1447
106 2 2.41837 12.5662 6.83855 39551.1 39597.7 -527.558 36.2846 -13.6086 -14.6573
107 2 0.806124 12.5662 9.11708 39805.4 39812.7 383.161 69.4356 -33.4985 -26.1405
108 2 4.03062 12.5662 11.3956 39662 39907 178.169 -65.6275 -45.9075 -76.8716
109 2 -9.23631e-06 11.17 13.6742 39770 39850.2 319.115 98.5854 -41.3145 -22.8685
110 2 3.22446 11.1699 15.9527 39221.1 39577.5 131.592 -234.052 -268.761 -342.749
111 2 1.61221 11.1699 18.2312 38782.6 39042 -180.851 -11.6212 -245.745 -373.257
112 2 2.41838 12.5662 13.6741 39674.7 39899 193.933 101.559 -11.5061 -96.146
113 2 0.806146 12.5662 15.9527 39415.7 39731.4 400.808 327.775 23.6349 -174.616
114 2 4.03058 12.5661 18.2312 37846.9 39053.7 -659.919 -149.482 -310.578 -648.371
115 2 -3.15167e-05 11.1698 20.5098 38855 38640.2 -945.824 156.482 -283.982 -371.145
116 2 3.22434 11.1697 22.7884 34186 35252.1 -47125.6 -1017.11 -346.06 -568.888
117 2 1.61215 11.1697 25.0699 -200017 -199168 49067.5 -320.776 -68.7161 -90.3205
118 2 2.41835 12.566 20.5097 37307.7 38591.5 -1384.64 279.741 -258.94 -596.079
119 2 0.806119 12.5659 22.7884 34315.5 35675.3 -46999.9 752.793 -232.154 -388.633
120 2 4.03035 12.5659 25.0698 -201358 -199345 49196.8 -2165.89 -137.842 -299.664
121 2 0 13.9625 0 -196902 -196869 49067.6 -16.3712 29.6312 -18.1707
122 2 3.2245 13.9625 2.28147 37364.2 37447.3 -47511.5 18.7589 10.7961 -15.2467
123 2 1.61225 13.9625 4.56005 39559.2 39651.8 -1993.74 39.8315 8.63891 -45.4682
124 2 2.41837 15.3587 0 -196907 -196877 49036.1 -15.3117 31.5348 -16.7804
125 2 0.806132 15.3587 2.28146 37325 37459.1 -47671.6 34.9584 63.8257 -49.1744
126 2 4.03062 15.3587 4.56005 39455.9 39664.6 -2040.6 58.2849 89.0349 -17.3291
127 2 8.62239e-06 13.9625 6.83855 39518.4 39621.2 -613.912 54.8393 13.46 -88.63
128 2 3.2245 13.9625 9.11707 39737 39897.9 326.864 118.515 93.6868 -6.21805
129 2 1.61227 13.9625 11.3956 39768.4 39931.9 326.452 221.308 118.08 -49.7812
130 2 2.41838 15.3587 6.83854 39397.2 39636 -737.656 106.385 113.108 -73.6858
131 2 0.806149 15.3587 9.11705 39545.2 39862.6 26.528 153.985 162.523 -154.154
132 2 4.03066 15.3587 11.3956 39337.3 40005.5 48.8702 234.642 365.681 -30.6642
133 2 4.16894e-05 13.9625 13.6741 39541.6 39882.8 243.702 421.895 244.377 -124.152
134 2 3.22455 13.9624 15.9527 38642.3 39807.2 14.0535 472.029 242.844 -262.26
135 2 1.61236 13.9624 18.2312 37676.3 39260.5 -387.847 948.059 281.486 -397.662
136 2 2.41846 15.3587 13.6741 38857.5 39987.5 -206.277 593.354 657.093 -119.202
137 2 0.806311 15.3587 15.9526 38055.8 39854.2 -108.089 1106.71 935.373 -287.93
138 2 4.03073 15.3586 18.2312 37240.1 39570.6 -565.719 615.749 285.389 -437.499
139 2 0.000170313 13.9623 20.5097 37062.4 38791.8 -1226.19 1538.08 171.499 -500.149
140 2 3.22438 13.9622 22.7883 32676.3 35928 -47174.6 -330.358 -458.609 -771.834
141 2 1.61214 13.9621 25.0699 -202684 -198595 49107.7 -121.434 -118.558 -136.568
142 2 2.41852 15.3585 20.5097 35913.1 39222.6 -1501.37 1184.43 246.744 -551.086
143 2 0.806296 15.3584 22.7883 31681.4 36380.7 -47118.4 1702.89 97.124 -507.902
144 2 4.03021 15.3584 25.0698 -204582 -198326 49112.1 -2199.82 -394.843 -354.237
145 2 0 16.755 0 -196966 -196888 48888.7 -25.2277 81.6464 -35.9276
146 2 3.2245 16.755 2.28146 37225.1 37437 -47749.7 38.7948 90.5713 -32.6997
147 2 1.61227 16.755 4.56004 39371.2 39669.9 -2338.15 64.3388 144.008 -85.5439
148 2 2.41837 18.1512 0 -196969 -196892 48874 -15.9753 89.4184 -20.8555
149 2 0.806142 18.1512 2.28145 37177.6 37465 -48073.5 31.5987 182.058 -51.9799
150 2 4.03063 18.1512 4.56004 39270.6 39693 -2290.4 61.0152 231.407 -39.4374
151 2 3.40548e-05 16.755 6.83851 39245.5 39655.8 -1135.59 88.2689 233.895 -174.938
152 2 3.22453 16.755 9.11704 39373.1 39963.7 -19.3963 240.376 440.922 -68.3537
153 2 1.61233 16.755 11.3956 38936.9 39983.9 -371.465 441.295 739.489 -158.83
154 2 2.41841 18.1512 6.83851 39082 39684.3 -1196.79 109.023 364.124 -100.642
155 2 0.806198 18.1512 9.11699 38912.5 39900.4 -785.515 209.538 657.152 -172.672
156 2 4.03071 18.1512 11.3956 38815.3 40053.2 -220.622 287.113 894.018 -41.5492
157 2 0.00018075 16.755 13.674 38118.3 39956.3 -693.943 852.18 1232.03 -291.03
158 2 3.2247 16.7549 15.9526 37358.6 40034.9 -377.977 772.457 1133.76 -267.307
159 2 1.61259 16.7549 18.2311 35425.7 39667.4 -944.947 1452.06 1339.94 -432.021
160 2 2.41857 18.1512 13.674 37663.5 40018.9 -813.295 610.734 1461.1 -131.65
161 2 0.806508 18.1512 15.9525 35884.7 40040.1 -974.602 1216.99 2198.63 -242.838
162 2 4.0309 18.1511 18.2311 36039.8 40098.4 -715.502 536.973 1067.72 -311.853
163 2 0.000488844 16.7548 20.5096 33391.9 39414.8 -1846.2 2430.48 1312.65 -547.055
164 2 3.22449 16.7547 22.7883 31761.9 36985.3 -47054.7 341.395 -352.015 -674.316
165 2 1.61216 16.7547 25.0698 -204925 -197642 49233.3 -29.7317 -154.166 -209.905
166 2 2.41872 18.1511 20.5096 34229.1 39954.7 -1669.79 906.256 863.454 -425.154
167 2 0.806499 18.151 22.7882 29429 37333.9 -47126.7 1226.52 533.995 -452.531
168 2 4.03013 18.151 25.0698 -206636 -197282 49195.9 -1088.02 -627.319 -237.998
169 2 0 19.5475 0 -197029 -196908 48714.3 -11.9217 133.297 -16.5748
170 2 3.22451 19.5475 2.28145 37103.5 37442.2 -48010.7 18.1947 177.442 -22.1526
171 2 1.61228 19.5475 4.56002 39199.3 39693 -2703.54 35.132 287.021 -46.5819
172 2 2.41837 20.9437 0 -196998 -196901 48795.9 -0.0959756 114.083 -0.0843339
173 2 0.806146 20.9437 2.28145 37111.2 37471.8 -48279.5 0.52028 238.815 -0.257031
174 2 4.03064 20.9437 4.56003 39176.1 39711.6 -2437.08 0.411895 308.469 -0.265118
175 2 6.13183e-05 19.5475 6.83847 38895.2 39672.3 -1775.37 71.4268 544.756 -83.9738
176 2 3.22457 19.5475 9.117 38992.2 40013.6 -425.436 113.506 721.915 -61.242
177 2 1.61239 19.5475 11.3955 38113.4 40014.9 -1066.69 234.96 1247.26 -99.7111
178 2 2.41842 20.9437 6.83849 38943.8 39705.6 -1417.86 1.07667 468.582 -0.610173
179 2 0.806222 20.9437 9.11696 38587 39915 -1185.53 2.26715 892.339 -1.11443
180 2 4.03074 20.9437 11.3955 38516.6 40068 -408.798 2.1108 1153.25 -0.420556
181 2 0.000306123 19.5475 13.6739 36391.6 40109.2 -1783.28 527.217 2301.75 -147.627
182 2 3.22482 19.5475 15.9526 36483.2 40122.6 -612.065 376.881 1899.96 -132.558
183 2 1.61278 19.5474 18.231 34022.7 39892.5 -1203.5 698.455 2111.9 -203.283
184 2 2.41862 20.9437 13.674 37138.5 40010.6 -1097.4 4.01105 1763.57 -1.06504
185 2 0.806594 20.9437 15.9525 34898.7 40132.1 -1341.17 6.17332 2697.05 -2.09337
186 2 4.03099 20.9437 18.2311 35326.8 40378.1 -865.306 5.77904 1506.61 -2.40783
187 2 0.000728297 19.5474 20.5095 30781.9 40017.3 -2034.41 1214.46 2203.09 -240.919
188 2 3.22457 19.5474 22.7882 30858.3 37775 -47128 270.362 -96.2772 -259.576
189 2 1.61219 19.5474 25.0697 -206662 -196868 49127.3 -15.6712 -164.505 -127.269
190 2 2.41882 20.9437 20.5096 33425.3 40289.2 -1785.05 4.18647 1163.29 -4.37684
191 2 0.806601 20.9437 22.7881 28592.9 37770.4 -47094.3 4.11618 726.635 -5.12645
192 2 4.03009 20.9437 25.0698 -207211 -196914 49342.9 2.79406 -688.071 0.315966
385 2 4.83674 0 0 -196870 -196891 49102.1 -3.23268 -21.0828 -8.33832
1597 2 19.3469 5.58494 13.6742 39994.8 39242.6 776.631 -192.042 -162.426 -197.598
1573 2 19.347 2.79247 13.6742 39913.2 39437.1 543.487 -73.747 -66.6522 -96.928
388 2 7.25512 1.39625 0 -196882 -196915 49025.6 -13.8467 -39.5335 -33.4837
389 2 5.64286 1.39624 2.28147 37447.2 37392.9 -47563.2 -45.7407 -58.2786 -43.303
390 2 8.86735 1.39624 4.56004 39677.6 39423.9 -2153.33 -64.7366 -102.134 -81.6845
1334 2 17.7351 19.5479 15.9529 42252.4 42715.2 11580.6 3137.42 21507.6 7126.41
1333 2 14.51 19.5474 13.6729 39872.3 39003.4 -17329.7 -162.703 -4077.29 -1850.74
1332 2 18.541 20.9437 11.3957 39255.9 41627.8 8130.98 -8.23345 5022.47 -29.671
394 2 7.2551 1.39623 6.83854 39555.1 39224.6 -823.08 -100.905 -168.506 -115.75
395 2 5.64284 1.39623 9.11706 39630.1 39303.9 27.5984 -139.984 -206.684 -136.313
396 2 8.86733 1.39621 11.3956 39805.8 38927 81.232 -169.973 -240.089 -235.83
1331 2 15.3163 20.9437 9.11668 40140.8 40199.7 -4703.84 -7.67527 912.171 -17.2122
1330 2 16.9286 20.9437 6.83836 39671 39995.9 -2318.95 -5.51994 1000.49 -14.7192
1329 2 16.1225 19.5475 11.3951 40554.9 40953.5 -5556.79 371.742 2746.37 -42.1763
400 2 7.25506 1.3962 13.6741 39585.2 38581.8 -2.00059 -312.673 -314.135 -299.117
401 2 5.64281 1.3962 15.9527 39369.1 38491.7 135.592 -390.363 -268.838 -279.956
402 2 8.86731 1.39617 18.2312 39639 37880.6 -214.527 -348.441 -178.152 -245.668
1328 2 17.7348 19.5475 9.11689 39810.4 41210.1 980.027 177.391 2406.92 374.39
1327 2 14.5102 19.5475 6.83828 39616.7 39544.1 -4272.25 -17.1564 91.5288 -140.585
1326 2 18.5409 20.9437 4.55997 39655.7 39709.1 -3227.01 -3.13851 360.188 -9.61323
406 2 7.25507 1.39618 20.5097 39697.1 38236.8 -1096.08 -337.02 -115.388 -159.572
407 2 5.64285 1.39619 22.7883 37392.7 36359 -46866.1 -180.323 -34.6821 -68.4142
408 2 8.86739 1.3962 25.0698 -196685 -197866 49151.4 187.316 -16.3536 5.99753
409 2 4.83674 2.7925 0 -196870 -196896 49090.6 -8.77036 -23.6673 -23.0589
410 2 8.06123 2.79249 2.28146 37445.4 37315.4 -47723 -79.9077 -84.4041 -93.6567
411 2 6.44898 2.79248 4.56005 39619.5 39485.8 -2140.23 -112.988 -118.1 -113.345
412 2 7.25512 4.18874 0 -196887 -196933 48977.1 -24.4401 -50.3487 -60.1651
413 2 5.64286 4.18874 2.28147 37428.1 37397.1 -47607.8 -80.4984 -67.2327 -71.7112
414 2 8.86735 4.18872 4.56004 39677.8 39451.8 -2255.75 -123.127 -112.489 -164.602
415 2 4.83673 2.79248 6.83855 39496.3 39390.9 -750.927 -137.277 -138.24 -119.595
416 2 8.06121 2.79246 9.11704 39761.9 39214.1 -54.1835 -194.964 -232.839 -259.954
417 2 6.44895 2.79245 11.3956 39586 39030.5 -55.0532 -320.93 -302.912 -324.444
418 2 7.2551 4.18872 6.83853 39559.9 39289.4 -906.316 -198.788 -194.286 -225.194
419 2 5.64284 4.18871 9.11705 39635.2 39425.2 -28.6644 -264.52 -226.754 -246.017
420 2 8.86732 4.18867 11.3956 39675.7 38815.4 -204.045 -392.267 -331.462 -520.637
421 2 4.83669 2.79244 13.6741 39340.8 38914.6 -86.9758 -406.581 -290.431 -334.07
422 2 8.06116 2.79239 15.9526 39504.4 38005.2 73.1854 -615.838 -363.35 -521.799
423 2 6.44891 2.79239 18.2312 39184.1 37895.5 -368.541 -699.726 -275.821 -426.369
424 2 7.25505 4.18865 13.6741 39376.6 38468.3 -289.372 -659.484 -457.04 -628.575
425 2 5.64278 4.18864 15.9526 39109.4 38405.5 -74.543 -803.568 -414.283 -580.49
426 2 8.86726 4.18856 18.2312 39373.2 37223.3 -315.786 -843.605 -308.392 -606.389
427 2 4.83668 2.79241 20.5097 39312.7 38336.1 -1173.1 -592.799 -115.545 -259.942
428 2 8.06123 2.7924 22.7883 37728.9 36038.2 -46791.4 -137.128 -29.6236 -69.2413
429 2 6.44901 2.79242 25.0698 -196879 -198124 49186 43.7113 -2.72807 -40.1938
430 2 7.25503 4.18858 20.5097 39419.6 37575.5 -1116.81 -832.303 -201.298 -412.94
431 2 5.64282 4.18862 22.7883 37201.2 35850.7 -46827.7 -506.768 -35.8154 -192.416
432 2 8.86741 4.18864 25.0698 -196415 -198229 49161.6 190.461 20.1985 -8.95215
433 2 4.83674 5.58499 0 -196868 -196902 49077.3 -10.0878 -27.3228 -26.6747
434 2 8.06123 5.58498 2.28146 37428 37306.3 -47851.9 -116.717 -107.846 -136.021
435 2 6.44898 5.58498 4.56004 39608 39518.5 -2198.96 -159.756 -137.36 -148.785
436 2 7.25512 6.98124 0 -196891 -196957 48916.1 -29.1719 -67.6147 -73.9621
437 2 5.64286 6.98123 2.28147 37400 37402.7 -47647.8 -96.6599 -77.6457 -75.0286
438 2 8.86735 6.98121 4.56002 39669.2 39454.1 -2420.01 -171.599 -145.367 -225.699
439 2 4.83673 5.58498 6.83854 39500 39469.7 -762.266 -178.111 -140.616 -138.719
440 2 8.06121 5.58493 9.11703 39722.7 39243.6 -259.335 -334.029 -299.574 -421.27
441 2 6.44894 5.58492 11.3956 39506.6 39121.5 -237.304 -505.043 -382.245 -488.983
442 2 7.25509 6.98121 6.83852 39543.8 39338.4 -1029.55 -268.888 -244.752 -285.432
443 2 5.64284 6.9812 9.11705 39610.4 39544.6 -100.493 -330.959 -250.894 -285.281
444 2 8.8673 6.98113 11.3955 39515.3 38749.3 -612.432 -632.653 -478.484 -794.959
445 2 4.83668 5.58492 13.6741 39245.4 39070.9 -216.115 -599.997 -362.349 -478.918
446 2 8.06112 5.5848 15.9526 39117.9 37633.7 -271.548 -1118.46 -606.635 -955.475
447 2 6.44886 5.58481 18.2312 38702.4 37457.6 -563.944 -1271.34 -502.561 -789.323
448 2 7.25503 6.9811 13.6741 39114.8 38464.4 -659.649 -988.461 -659.685 -921.477
449 2 5.64276 6.9811 15.9526 38782 38420.3 -327.768 -1177.66 -619.785 -856.494
450 2 8.86718 6.98093 18.2311 38713.3 36340.6 -664.798 -1604.12 -620.407 -1196.52
451 2 4.83663 5.58483 20.5097 38822.1 37890.4 -1223.01 -1052.46 -232.238 -491.399
452 2 8.06118 5.58479 22.7883 37539.8 35081.8 -46788.1 -554.337 -41.5374 -200.172
453 2 6.44899 5.58484 25.0698 -196834 -198652 49197.1 -221.885 -14.7255 -74.6257
454 2 7.25495 6.98095 20.5096 38626 36642 -1274.56 -1582.27 -413.374 -800.529
455 2 5.64276 6.98101 22.7883 36586.2 35047.6 -46828.1 -1061.04 -123.06 -351.535
456 2 8.86739 6.98104 25.0698 -196167 -199015 49120.3 -58.8907 34.1327 -23.0522
457 2 4.83674 8.37749 0 -196864 -196904 49077.2 -7.25039 -27.3676 -18.015
458 2 8.06123 8.37747 2.28145 37398.9 37296.8 -47996.7 -143.302 -142.908 -160.117
459 2 6.44898 8.37747 4.56004 39579.9 39552.8 -2247.88 -178.911 -159.306 -147.139
460 2 7.25512 9.77373 0 -196889 -196974 48878.1 -26.084 -83.0968 -67.1167
461 2 5.64286 9.77373 2.28147 37377.1 37410.9 -47639.3 -85.3424 -75.2181 -47.8938
462 2 8.86734 9.7737 4.56001 39641.8 39449.1 -2604.21 -208.387 -199.918 -254.04
463 2 4.83673 8.37747 6.83854 39488.2 39543.5 -747.571 -167.939 -126.708 -110.398
464 2 8.0612 8.37742 9.11701 39635.7 39272.1 -544.598 -456.749 -406.806 -537.131
465 2 6.44894 8.37741 11.3956 39404 39269 -446.915 -631.431 -480.958 -574.827
466 2 7.25509 9.7737 6.83851 39513.5 39380.4 -1118.21 -290.675 -301.541 -268.847
467 2 5.64284 9.7737 9.11705 39623.2 39660.1 -69.6068 -303.698 -250.617 -209.217
468 2 8.86729 9.7736 11.3955 39412.2 38845 -1048.92 -734.294 -629.878 -939.3
469 2 4.83668 8.37741 13.6741 39198.8 39320.4 -330.124 -695.293 -436.892 -538.728
470 2 8.06107 8.37722 15.9525 38562.6 37542.2 -805.024 -1671.81 -959.235 -1504.69
471 2 6.44881 8.37722 18.2311 37906.1 37300.5 -944.333 -1882.56 -833.551 -1275.52
472 2 7.25503 9.77358 13.674 38971.8 38757 -956.74 -1044.52 -815.907 -1018.44
473 2 5.64276 9.77357 15.9526 38611.4 38823.2 -486.693 -1148.88 -754.218 -945.651
474 2 8.86709 9.77328 18.231 37720.1 36017.6 -1501.86 -2511.64 -1273.76 -2147.38
475 2 4.83657 8.37724 20.5097 37874.1 37512.7 -1413.15 -1608.48 -456.194 -828.628
476 2 8.06108 8.37712 22.7883 36719.1 33654 -46788 -1564.27 -167.805 -479.287
477 2 6.44893 8.37723 25.0698 -197105 -199436 49236.5 -772.512 -23.9255 -165.904
478 2 7.25484 9.77331 20.5096 37016 36079.2 -1735.16 -2711.11 -909.688 -1502.34
479 2 5.64265 9.77338 22.7883 34883.7 34278.1 -47001.5 -2078.51 -335.902 -693.073
480 2 8.86729 9.77338 25.0697 -196150 -200449 49305.1 -1062.69 55.0169 -204.45
481 2 4.83674 11.17 0 -196862 -196899 49085.2 -4.45573 -20.9721 -6.75312
482 2 8.06122 11.17 2.28145 37367 37300.3 -48087.3 -148.582 -177.397 -148.338
483 2 6.44898 11.17 4.56004 39545.6 39586.5 -2237.02 -161.031 -163.951 -103.951
484 2 7.25512 12.5662 0 -196883 -196977 48876.4 -18.0367 -86.3354 -43.7102
485 2 5.64286 12.5662 2.28147 37352.6 37415 -47594.6 -48.8602 -50.4065 -11.9265
486 2 8.86734 12.5662 4.56001 39572.8 39460.1 -2770.68 -229.619 -268.637 -249.275
487 2 4.83673 11.17 6.83855 39486.5 39601.1 -672.159 -116.917 -90.8692 -52.5659
488 2 8.0612 11.1699 9.11699 39562 39314.9 -727.806 -469.513 -498.361 -482.561
489 2 6.44896 11.1699 11.3956 39390.9 39457.9 -465.438 -527.753 -476.698 -420.127
490 2 7.25509 12.5662 6.83851 39419.2 39422.9 -1183.03 -268.754 -335.115 -220.288
491 2 5.64285 12.5662 9.11706 39556.5 39759 -37.7201 -206.782 -182.962 -128.749
492 2 8.86731 12.5661 11.3955 39267.5 39032.7 -1310.12 -779.069 -744.796 -852.107
493 2 4.83671 11.1699 13.6741 39324.9 39629.5 -215.851 -427.134 -339.031 -341.218
494 2 8.06108 11.1697 15.9525 38344.4 38100.1 -1308.7 -1619.24 -1250.89 -1678.33
495 2 6.4488 11.1697 18.2311 37372.7 37937.3 -1304.18 -1705.65 -1101.28 -1474.12
496 2 7.25506 12.5661 13.674 38918.2 39199.1 -959.773 -880.518 -776.505 -780.091
497 2 5.64282 12.5661 15.9526 38557.1 39411.5 -429.234 -627.296 -544.198 -674.109
498 2 8.86709 12.5657 18.2309 37269.1 37227.8 -2390.45 -2502.6 -2068.58 -2627.55
499 2 4.83655 11.1697 20.5097 36737.3 37833.5 -1672.08 -1483.75 -724.563 -1086.35
500 2 8.06086 11.1694 22.7882 34109.2 32348.1 -46997.5 -3834.52 -767.707 -1229.91
501 2 6.44876 11.1696 25.0698 -198701 -200276 49331.4 -2556.79 -72.0497 -369.019
502 2 7.25478 12.5657 20.5095 35714.4 37127.7 -2169.82 -2916.42 -1720.67 -1999.7
503 2 5.64253 12.5658 22.7883 32490.6 34670.6 -47098.8 -2794.41 -881.646 -1144.86
504 2 8.86696 12.5656 25.0696 -197979 -202316 49532.4 -4409.09 -232.345 -546.747
505 2 4.83674 13.9625 0 -196870 -196892 49072.4 -6.17698 -5.94369 -3.22243
506 2 8.06122 13.9625 2.28145 37339.1 37311.2 -48081.9 -112.366 -180.658 -93.8884
507 2 6.44898 13.9625 4.56005 39502.6 39606.9 -2164.66 -81.7354 -102.052 -32.6696
508 2 7.25512 15.3587 0 -196885 -196970 48878.1 -11.9983 -71.662 -22.2246
509 2 5.64286 15.3587 2.28147 37281.7 37412 -47612.6 -2.35823 6.8203 0.444585
510 2 8.86734 15.3587 4.56001 39477.6 39482.4 -2825.24 -182.099 -281.893 -171.042
511 2 4.83674 13.9625 6.83855 39456.8 39642.9 -594.562 14.1823 40.0295 7.02445
512 2 8.06121 13.9624 9.11699 39458.8 39421.8 -781.808 -392.158 -520.605 -363.094
513 2 6.44898 13.9624 11.3956 39354.6 39665.3 -357.481 -309.608 -320.981 -244.937
514 2 7.25511 15.3587 6.83852 39294.6 39458.7 -1144.57 -163.266 -257.853 -116.142
515 2 5.64288 15.3587 9.11706 39419.1 39837.3 30.0264 -27.4485 48.1212 -33.8811
516 2 8.86734 15.3586 11.3955 39225.5 39388.4 -1210.95 -491.385 -646.53 -521.59
517 2 4.83676 13.9624 13.6741 39185.8 39888.5 -169.878 15.3457 29.6725 -182.157
518 2 8.06116 13.9622 15.9525 38279.1 39124.9 -1339.47 -1213.56 -1148.89 -1166.24
519 2 6.44891 13.9622 18.2311 37470.3 39114.2 -1211.82 -900.217 -879.589 -1019.94
520 2 7.25514 15.3586 13.674 39021.4 39679.5 -637.864 -407.63 -442.292 -413.845
521 2 5.64293 15.3586 15.9526 38488.9 39904.8 -137.784 -0.207633 -0.069827 -355.507
522 2 8.86721 15.3583 18.2309 37602.6 39535 -2208.42 -1690.76 -2124.45 -1609.03
523 2 4.83665 13.9622 20.5097 36349.8 38886.9 -1649.49 -524.467 -652.355 -967.226
524 2 8.06058 13.9617 22.7881 30348.7 33330.1 -47258.1 -5578.42 -2382.33 -2216.91
525 2 6.44841 13.9619 25.0698 -203144 -199971 49488.2 -5131.74 -499.472 -529.332
526 2 7.25489 15.3583 20.5096 36049.8 39467.3 -1862.53 -1601.32 -1783.38 -1452.52
527 2 5.64252 15.3583 22.7883 31487.2 36473.6 -47039.8 -1871.46 -1190.38 -1274.76
528 2 8.86622 15.3579 25.0696 -208138 -202300 49948.9 -11091.6 -1803.61 -786.4
529 2 4.83674 16.755 0 -196904 -196892 48998.4 -10.1469 32.2753 -7.72378
530 2 8.06123 16.755 2.28145 37282.8 37317.5 -48055.3 -50.9338 -132.794 -38.1801
531 2 6.44899 16.755 4.56005 39396.5 39619 -2142.47 2.03149 31.3852 2.19787
532 2 7.25512 18.1512 0 -196904 -196963 48847.1 -7.49712 -36.8299 -9.41925
533 2 5.64287 18.1512 2.28146 37163 37414 -47740 18.9754 96.2339 -4.28696
534 2 8.86735 18.1512 4.56001 39366.5 39492.6 -2785.51 -82.3651 -204.193 -66.8458
535 2 4.83676 16.755 6.83854 39295.4 39689.8 -674.871 106.106 259.792 -4.98992
536 2 8.06124 16.7549 9.117 39180 39571.3 -790.475 -274.176 -417.151 -244.558
537 2 6.44903 16.7549 11.3956 39080.6 39869.8 -269.38 -141.823 52.3667 -127.595
538 2 7.25512 18.1512 6.83853 39124.3 39473.7 -1068.72 -32.9226 -36.0673 -23.8345
539 2 5.64291 18.1512 9.11706 39191.3 39891.4 50.4482 87.9725 429.759 7.42348
540 2 8.86738 18.1511 11.3955 38830.2 39816.2 -1289.13 -244.198 -577.384 -291.54
541 2 4.83684 16.755 13.6741 38629.6 40097.8 -276.257 234.021 686.28 -117.831
542 2 8.06129 16.7548 15.9525 38167.2 40140.3 -966.703 -462.708 -809.508 -538.279
543 2 6.44907 16.7548 18.2311 37402.8 40129.9 -829.172 -97.7953 -344.231 -427.59
544 2 7.25521 18.1512 13.6741 38600.9 40141.6 -569.165 -156.589 -0.943086 -215.297
545 2 5.64306 18.1512 15.9526 37795.1 40349.6 -137.396 149.012 786.36 -196.746
546 2 8.86733 18.151 18.2309 38024.9 41305.5 -1301.26 -659.489 -1792.77 -557.194
547 2 4.83681 16.7548 20.5097 36121.4 39925 -1423.71 283.01 -214.073 -566.356
548 2 8.06054 16.7544 22.7882 30558 37077.8 -46658.5 -3487.4 -3223.46 -2175.14
549 2 6.44808 16.7545 25.0698 -207546 -197965 49600.2 -4735.04 -1207.36 -495.765
550 2 7.25502 18.151 20.5096 37027.8 41159.7 -1191.98 -463.97 -1495.25 -663.968
551 2 5.64259 18.151 22.7883 32074.3 37998.7 -46812.4 -592.379 -1209.77 -781.195
552 2 8.86565 18.1506 25.0696 -216563 -197746 50236.2 -8051.62 -3414.37 -694.855
553 2 4.83674 19.5475 0 -196945 -196897 48903.9 -6.06097 77.633 -6.04234
554 2 8.06123 19.5475 2.28145 37209.9 37319.4 -48068.1 -9.26771 -68.0051 -8.39812
555 2 6.449 19.5475 4.56004 39250.4 39633.5 -2213.04 18.4756 177.729 1.73982
556 2 7.25512 20.9437 0 -196920 -196961 48819.7 -0.0591076 -13.4794 -0.105095
557 2 5.64287 20.9437 2.28146 37092.8 37417.5 -47834.5 0.0481799 152.747 -0.0939315
558 2 8.86735 20.9437 4.56001 39308.2 39493.2 -2756.64 -1.84469 -149.559 -1.52436
559 2 4.83678 19.5475 6.83852 39079.8 39741.2 -868.081 59.9884 471.021 -17.5574
560 2 8.06126 19.5475 9.11701 38958.3 39674.9 -701.029 -93.0936 -215.993 -80.0036
561 2 6.44908 19.5475 11.3956 38808.6 39992 -134.875 -15.9675 536.287 -24.3529
562 2 7.25513 20.9437 6.83853 39018.1 39477.2 -1048.5 -1.30076 99.3744 -1.0205
563 2 5.64293 20.9437 9.11705 39026.1 39916.1 5.41492 0.134774 648.562 -0.442624
564 2 8.86739 20.9437 11.3955 38534.2 40051.2 -1403.18 -2.44254 -579.324 -2.44817
565 2 4.83692 19.5475 13.6741 38120.9 40200.6 -334.085 153.367 1390.53 -40.5305