ITEM: TIMESTEP
200
ITEM: NUMBER OF ATOMS
3074
ITEM: BOX BOUNDS pp pp pp
0.0000000000000000e+00 3.8693948398131120e+01
0.0000000000000000e+00 4.4679925159782847e+01
0.0000000000000000e+00 6.0000000000000000e+01
ITEM: ATOMS id type x y z v_stress_xx v_stress_yy v_stress_zz v_stress_xy v_stress_xz v_stress_yz
1 2 0 0 0 2480.86 2481.52 -617.808 0.0131157 0.616209 0.0347566
1693 2 19.3473 16.7553 13.6747 -2511.75 -2874.71 -767.076 -105.56 -256.351 -532.949
1675 2 19.3468 13.9635 20.5106 -2639.86 -3367.67 -1464.94 70.9371 -532.832 -803.192
4 2 2.41837 1.39625 0 2480.98 2481.78 -616.962 0.0964713 0.81061 0.233021
5 2 0.806113 1.39625 2.28146 -2428.2 -2422.92 3107.71 1.47856 6.31801 1.16738
6 2 4.0306 1.39624 4.56003 -2578.9 -2562.07 129.243 4.29442 9.60523 4.45099
1344 2 18.4911 20.9437 25.0332 48854.4 23552 40918.2 -5.2442 19137.7 1.07396
1663 2 19.347 13.9625 6.83854 -2558.1 -2620.71 -9.4639 -4.4348 -15.1777 -24.0831
1651 2 19.347 11.1706 20.51 -2521.5 -3097.25 -286.697 0.420329 -134.886 -294.251
10 2 2.41834 1.39624 6.83855 -2572.67 -2557.23 23.016 5.02858 11.7458 4.20051
11 2 0.806083 1.39624 9.11707 -2567.24 -2555.51 16.7072 5.41718 12.9893 3.78064
12 2 4.03055 1.39621 11.3956 -2569.13 -2522.79 19.4469 14.1001 19.5023 12.9745
1343 2 15.3127 20.9437 22.7846 -3180.53 -2997.53 3358.48 -1.78985 775.85 -0.211668
1645 2 19.3469 11.17 13.6741 -2553.87 -2654.74 -86.2628 36.667 12.4939 -0.599793
1639 2 19.347 11.1699 6.83853 -2563.56 -2596.15 21.0182 9.22205 2.93246 12.2746
16 2 2.41829 1.39621 13.6741 -2560.23 -2516.68 12.4943 17.4666 20.4233 13.0605
17 2 0.806034 1.39621 15.9526 -2554.39 -2516.53 5.02277 19.6289 17.7351 12.1494
18 2 4.03053 1.39617 18.2312 -2575.31 -2473.44 -4.47137 28.2332 16.2231 16.9751
1342 2 16.9249 20.9437 20.5035 -694.675 -1174.07 10453.7 -0.819167 3107.4 -0.0650549
1621 2 19.3469 8.37748 13.6742 -2580.38 -2606.36 -52.7981 30.3957 12.2332 10.7029
1615 2 19.347 8.37745 6.83856 -2577.12 -2577.66 3.73261 11.4386 7.71779 14.3738
22 2 2.41829 1.39617 20.5097 -2580.13 -2485.44 93.0191 26.4524 12.439 11.7997
23 2 0.806054 1.39619 22.7883 -2440.41 -2351.38 3081.34 22.0584 8.74759 7.29484
24 2 4.03063 1.39618 25.0698 1743.3 1760.15 -436.916 0.940523 0.380599 0.296449
25 2 0 2.7925 0 2480.81 2481.45 -618.031 0.0373083 0.586788 0.0928583
26 2 3.22448 2.79249 2.28146 -2428.31 -2418.58 3116.26 3.8847 7.94104 4.09491
27 2 1.61223 2.79249 4.56003 -2576.84 -2569.6 121.314 3.92651 8.15142 2.85394
28 2 2.41837 4.18874 0 2480.93 2481.74 -617.137 0.168093 0.799214 0.398904
29 2 0.806113 4.18874 2.28147 -2428.52 -2424.39 3104.64 2.47373 5.90522 1.86722
30 2 4.0306 4.18872 4.56002 -2578.02 -2564.43 130.477 7.89022 10.2032 7.66958
31 2 -2.51315e-05 2.79249 6.83856 -2572.48 -2568.54 13.8785 3.34639 8.53146 1.6237
32 2 3.22445 2.79246 9.11706 -2569.62 -2545.53 23.4148 12.4876 16.5353 10.9981
33 2 1.61219 2.79246 11.3956 -2562.46 -2543.07 16.6387 14.6466 17.8259 10.8982
34 2 2.41834 4.18872 6.83855 -2572.55 -2561.85 22.0109 8.67284 11.8859 6.60063
35 2 0.806086 4.18872 9.11708 -2568.5 -2562.43 14.2674 8.77861 12.5544 5.41974
36 2 4.03055 4.18868 11.3956 -2565.97 -2530.65 24.807 25.3144 23.18 22.9802
1341 2 16.1076 19.5425 25.0633 7786.47 5074.23 -1007.25 3623.52 918.974 71.3951
38 2 3.22439 2.79241 15.9526 -2559 -2494.13 7.25427 36.3084 23.5777 25.2206
39 2 1.61214 2.79241 18.2312 -2556.64 -2496.6 -0.396168 38.2623 19.0068 20.8746
40 2 2.41829 4.18867 13.6741 -2556.84 -2527.39 15.5479 30.4271 24.0567 22.833
41 2 0.806026 4.18867 15.9526 -2550.94 -2527.54 6.39798 34.0497 21.3717 21.5265
42 2 4.03049 4.18858 18.2311 -2559.01 -2465.05 2.12444 57.4951 25.8368 35.7045
1340 2 17.7278 19.5453 22.7755 -5006.79 171.338 29173.3 -1490.01 8094.46 10386.7
44 2 3.22444 2.79238 22.7883 -2446.19 -2325.43 3079.79 29.3332 9.02803 10.3783
45 2 1.61221 2.7924 25.0698 1743.55 1760.03 -436.994 2.96926 0.481482 0.575349
46 2 2.41825 4.18859 20.5097 -2564.46 -2473.8 95.0508 53.7188 18.1855 24.6176
47 2 0.806022 4.18861 22.7883 -2430.46 -2336.39 3081.26 43.8961 10.6412 14.6148
48 2 4.03062 4.18859 25.0698 1743.81 1763.42 -436.983 2.43299 0.460248 0.60682
49 2 0 5.58499 0 2480.73 2481.33 -618.445 0.0576426 0.53082 0.118072
50 2 3.22448 5.58498 2.28146 -2427.82 -2420.36 3115 5.53388 7.94536 5.57935
51 2 1.61223 5.58498 4.56004 -2577.09 -2572.77 117.915 5.0537 7.70442 3.2815
52 2 2.41837 6.98124 0 2480.84 2481.66 -617.461 0.208645 0.756799 0.461866
53 2 0.806115 6.98123 2.28147 -2428.85 -2426.15 3099.99 2.46577 5.17671 2.03934
54 2 4.0306 6.98121 4.56002 -2576.89 -2568 130.599 9.58496 10.7196 8.75063
55 2 -2.14683e-05 5.58498 6.83856 -2574.3 -2573.13 9.27452 3.75896 7.58523 1.14915
56 2 3.22445 5.58495 9.11706 -2569.06 -2554.28 24.0759 16.8867 17.7049 13.989
57 2 1.61219 5.58495 11.3956 -2563.7 -2555.55 14.9245 18.5103 18.2435 13.2216
58 2 2.41834 6.98121 6.83855 -2573.02 -2568.21 18.8342 9.37367 11.4711 6.46325
59 2 0.806093 6.98122 9.11708 -2571.49 -2571.52 8.99331 8.34139 11.1159 4.49535
60 2 4.03055 6.98115 11.3956 -2564.35 -2544.49 28.7354 29.2218 26.4773 26.6101
1339 2 14.5086 19.5469 20.507 -2357.17 -2647.04 1175.94 734.994 751.05 -34.6026
62 2 3.22437 5.58485 15.9526 -2548.91 -2504.32 14.0518 52.6138 32.2227 38.4669
63 2 1.61212 5.58485 18.2312 -2545.17 -2503.27 2.38854 55.6559 26.4018 32.6899
64 2 2.41829 6.98115 13.6741 -2557.14 -2545.59 15.7479 32.922 26.6956 26.0284
65 2 0.806028 6.98115 15.9527 -2552.82 -2546.42 4.23753 36.152 24.2691 25.5895
66 2 4.03046 6.981 18.2311 -2533.17 -2466.27 12.7516 78.5265 40.6434 53.9939
1338 2 18.5419 20.9437 18.2354 -2817.14 -2444.91 -4921.92 -0.176635 -4028.78 0.036383
68 2 3.22439 5.58477 22.7883 -2421.6 -2296.66 3079.84 54.0564 12.9513 18.6075
69 2 1.61219 5.58481 25.0698 1745.32 1763.81 -437.04 4.94875 0.5289 0.936437
70 2 2.41821 6.98101 20.5097 -2534.8 -2465.89 98.1431 73.4197 27.7873 37.9582
71 2 0.805985 6.98103 22.7883 -2403.89 -2317.88 3079.84 58.5159 13.8673 21.6209
72 2 4.03058 6.98097 25.0698 1747.49 1767.65 -437.171 5.19277 0.639937 0.973177
73 2 0 8.37749 0 2480.7 2481.16 -618.824 0.104739 0.420124 0.155571
74 2 3.22448 8.37747 2.28146 -2427 -2422.55 3112.54 5.59332 7.40804 5.8456
75 2 1.61223 8.37747 4.56004 -2577.31 -2576.21 113.5 4.05374 6.5943 2.85385
76 2 2.41837 9.77373 0 2480.83 2481.52 -617.7 0.250142 0.608387 0.472241
77 2 0.806118 9.77373 2.28147 -2428.14 -2427.63 3097.28 1.26499 3.57476 2.32925
78 2 4.0306 9.77371 4.56002 -2575.29 -2572.29 129.9 8.3144 9.94763 8.11795
1337 2 15.3158 20.9437 15.9508 -2507.1 -2348.31 1986.73 -0.314098 378.202 -0.0976422
80 2 3.22446 8.37744 9.11706 -2569.93 -2565.37 21.7613 15.7799 17.2046 12.9253
81 2 1.61221 8.37744 11.3956 -2568.33 -2570.45 9.41621 15.0759 16.2476 11.6148
82 2 2.41835 9.77371 6.83856 -2573.61 -2574.82 15.1082 6.38497 9.2533 5.37052
83 2 0.806108 9.77371 9.11709 -2575.28 -2580.24 3.4218 3.85978 7.49385 3.69697
84 2 4.03057 9.77365 11.3956 -2565.17 -2562.13 28.2461 23.4975 25.362 23.929
85 2 -4.81354e-05 8.37745 13.6741 -2568.28 -2575.94 -0.399656 15.2161 14.5768 12.1843
86 2 3.22438 8.37732 15.9526 -2544.22 -2526.84 17.8833 50.9197 38.5329 43.9014
87 2 1.61212 8.37732 18.2312 -2538.3 -2520.59 1.83307 52.8087 32.5923 39.9529
88 2 2.41832 9.77365 13.6741 -2563.02 -2567.25 11.0062 22.196 23.5908 23.4733
89 2 0.806064 9.77365 15.9527 -2563.19 -2568.55 -3.20091 21.6468 21.3519 25.4954
90 2 4.03047 9.77346 18.2311 -2507.43 -2491.54 23.1329 70.9222 52.5708 64.7047
1336 2 16.9288 20.9437 13.6741 -2604.19 -2662.5 -77.9891 0.0127593 -631.051 0.293147
92 2 3.22434 8.37716 22.7883 -2357.52 -2270.73 3081.81 77.6101 21.0287 29.2969
93 2 1.61215 8.3772 25.0698 1752.54 1767.13 -437.204 6.34111 0.618496 1.22409
94 2 2.41822 9.77344 20.5097 -2493.21 -2475.93 101.345 64.2242 37.2173 49.5023
95 2 0.805987 9.77344 22.7883 -2346.69 -2307.4 3076.79 46.4873 17.8631 28.7481
96 2 4.03049 9.77335 25.0698 1759.66 1770.27 -437.535 10.6056 1.06757 1.55016
97 2 0 11.17 0 2480.88 2481.04 -618.609 0.21395 0.144486 0.274998
98 2 3.22449 11.17 2.28146 -2424.75 -2424.76 3112.35 3.86196 5.26447 5.5878
99 2 1.61224 11.17 4.56004 -2575.99 -2579.34 112.913 1.00152 3.68706 3.0476
100 2 2.41837 12.5662 0 2481.1 2481.4 -617.298 0.320564 0.216658 0.502068
101 2 0.806125 12.5662 2.28147 -2424.49 -2428.82 3103.54 -0.711661 -0.205609 3.38929
102 2 4.03061 12.5662 4.56002 -2571.46 -2576.77 132.877 4.26693 6.10145 7.22627
1335 2 16.1214 19.5473 18.2282 -2476 -2050.41 3997.1 -36.0288 874.563 770.679
104 2 3.22448 11.1699 9.11706 -2570.56 -2576.47 19.4442 8.71836 12.3942 10.917
105 2 1.61224 11.1699 11.3956 -2573.35 -2583.91 4.87216 4.82485 9.11789 10.6969
106 2 2.41837 12.5662 6.83855 -2571.36 -2580.75 17.4819 0.534246 3.11964 5.81613
107 2 0.806137 12.5662 9.11708 -2575.68 -2587.29 6.12935 -3.58232 -0.910055 6.45302
108 2 4.03062 12.5662 11.3956 -2562.32 -2579.58 28.9241 8.63567 14.8966 19.8666
109 2 -3.79665e-06 11.17 13.6741 -2578.93 -2591.28 -6.87395 2.08789 6.35116 13.3443
110 2 3.22444 11.1698 15.9526 -2544.44 -2557.19 16.2062 25.3296 32.4266 39.8519
111 2 1.61219 11.1698 18.2312 -2535.41 -2545.31 -2.25409 18.8147 27.3814 41.3381
112 2 2.41839 12.5662 13.6741 -2563.31 -2586.4 10.4759 0.278505 8.98617 21.6391
113 2 0.806161 12.5661 15.9526 -2565.9 -2586.94 -4.76597 -8.55871 4.93218 27.5385
114 2 4.03058 12.566 18.2311 -2478.45 -2539.42 27.0844 21.6681 42.1805 58.708
115 2 -6.26283e-05 11.1698 20.5097 -2529.41 -2519.33 83.7469 12.0155 20.3071 40.3654
116 2 3.22431 11.1696 22.7883 -2236.9 -2278.44 3087.51 78.6775 34.6384 43.9276
117 2 1.61213 11.1696 25.0698 1770.92 1765.99 -437.508 6.11153 0.96619 1.40981
118 2 2.41833 12.5659 20.5097 -2431.02 -2511.92 105.167 3.71898 30.3328 54.015
119 2 0.806098 12.5659 22.7883 -2232.52 -2324.11 3078.4 -19.5172 16.2863 37.9939
120 2 4.03035 12.5658 25.0697 1786.29 1767.21 -438.031 19.805 2.40509 2.36832
121 2 0 13.9625 0 2481.52 2481.07 -617.101 0.363172 -0.454387 0.475634
122 2 3.2245 13.9625 2.28146 -2419.28 -2426.89 3120.66 1.107 0.155218 5.41801
123 2 1.61226 13.9625 4.56003 -2570.54 -2582.41 124.025 -2.8023 -2.94275 4.7973
124 2 2.41837 15.3587 0 2481.79 2481.39 -615.765 0.378022 -0.525352 0.533856
125 2 0.806137 15.3587 2.28146 -2416.68 -2430.13 3124.9 -2.2949 -7.47079 4.7669
126 2 4.03063 15.3587 4.56001 -2562.84 -2581.19 145.528 -0.528871 -2.48638 6.70556
127 2 2.3468e-05 13.9625 6.83855 -2572.57 -2585.81 17.9523 -6.2586 -6.98642 6.85454
128 2 3.22452 13.9624 9.11705 -2564.02 -2586.02 26.6201 -2.03926 -0.472366 11.0202
129 2 1.6123 13.9624 11.3956 -2567.83 -2594.29 14.6225 -10.0238 -8.64835 14.0818
130 2 2.41841 15.3587 6.83853 -2561.37 -2586.06 34.8257 -5.5795 -9.82741 8.05832
131 2 0.806189 15.3587 9.11704 -2564.48 -2593.05 30.6146 -11.5904 -19.1393 12.6252
132 2 4.0307 15.3587 11.3955 -2539.31 -2594.64 43.3547 -9.57351 -11.5131 17.1652
133 2 8.89538e-05 13.9625 13.6741 -2575.83 -2602.19 4.87272 -18.6594 -15.9659 21.0309
134 2 3.22458 13.9623 15.9526 -2513.88 -2586.87 24.2757 -16.701 2.29131 34.591
135 2 1.61238 13.9623 18.2311 -2479.16 -2572.82 9.87085 -43.4744 -7.27561 42.3983
136 2 2.41852 15.3587 13.6741 -2526.37 -2602.58 33.5691 -27.6655 -30.1165 22.6341
137 2 0.806355 15.3587 15.9526 -2500.87 -2603.85 29.0538 -54.9835 -49.6288 33.6343
138 2 4.03077 15.3585 18.2311 -2413.1 -2592.81 32.7754 -27.6745 5.46313 45.3295
139 2 0.000173424 13.9622 20.5097 -2423.94 -2538.22 97.6464 -79.3111 -12.9491 49.4737
140 2 3.22437 13.9621 22.7882 -2115.55 -2341.86 3086.87 34.9946 41.6672 55.1959
141 2 1.61213 13.9621 25.0698 1795.48 1758.32 -437.869 4.09274 1.61049 1.82472
142 2 2.41855 15.3584 20.5096 -2324.34 -2568.66 112.917 -56.9415 -1.97561 50.3075
143 2 0.806315 15.3584 22.7882 -2070.12 -2381.35 3083.61 -81.1776 -1.57996 44.4174
144 2 4.0302 15.3583 25.0697 1816.32 1757.06 -438.504 20.5114 4.87587 2.83379
145 2 0 16.755 0 2482.61 2481.31 -614.255 0.415904 -1.37854 0.577817
146 2 3.22451 16.755 2.28145 -2410.25 -2428.92 3139.88 -1.01112 -8.23947 4.75075
147 2 1.61228 16.755 4.56001 -2559.53 -2585.73 150.592 -4.92512 -14.6278 6.34991
148 2 2.41837 18.1512 0 2482.72 2481.51 -613.534 0.292945 -1.45375 0.404504
149 2 0.80615 18.1512 2.28144 -2406.81 -2431.55 3155.75 -2.11887 -17.066 4.21514
150 2 4.03066 18.1512 4.55999 -2550.24 -2584.98 165.989 -2.63698 -14.5887 4.79961
151 2 6.25336e-05 16.755 6.8385 -2559 -2589.86 55.5956 -8.59166 -23.9269 11.6697
152 2 3.22458 16.7549 9.11701 -2540.91 -2593.98 52.008 -10.9494 -25.5885 11.2457
153 2 1.6124 16.755 11.3955 -2530.59 -2603.01 55.0171 -23.9056 -48.1961 17.5635
154 2 2.41845 18.1512 6.83849 -2542.33 -2590.59 66.1882 -7.26291 -29.7827 7.40161
155 2 0.806258 18.1512 9.11697 -2533.89 -2598.05 80.8269 -14.1894 -52.2341 13.2145
156 2 4.03079 18.1512 11.3955 -2498.2 -2606.88 69.3005 -15.0376 -47.6842 11.6367
157 2 0.000252892 16.755 13.674 -2511.35 -2612.07 66.6855 -44.8928 -78.2966 29.1756
158 2 3.22477 16.7549 15.9525 -2433.89 -2616.43 47.9309 -43.6791 -53.2078 27.4089
159 2 1.61264 16.7548 18.231 -2344.38 -2610.5 40.9896 -82.4669 -76.9701 38.3367
160 2 2.41867 18.1512 13.674 -2454.1 -2618.28 75.3966 -33.1571 -86.9869 17.5123
161 2 0.80659 18.1512 15.9524 -2370.17 -2626.95 89.8566 -63.6311 -136.181 28.1998
162 2 4.03095 18.1511 18.231 -2327.07 -2638.95 40.0782 -35.7071 -41.9769 25.9461
163 2 0.00052709 16.7548 20.5095 -2208.17 -2588.8 128.456 -135.022 -87.939 50.4986
164 2 3.22449 16.7547 22.7882 -2023.16 -2426.05 3083.89 -4.04777 36.629 48.9125
165 2 1.61216 16.7547 25.0697 1817.74 1749.09 -438.163 1.81864 2.18313 2.00274
166 2 2.41878 18.1511 20.5095 -2202.67 -2627.62 120.619 -59.1754 -47.215 32.5639
167 2 0.806537 18.151 22.7881 -1914.42 -2452.17 3085.74 -74.5889 -32.6303 33.4955
168 2 4.03011 18.151 25.0697 1838.16 1747.21 -438.8 12.324 7.15817 2.01167
169 2 0 19.5475 0 2483.59 2481.59 -611.649 0.200956 -2.19151 0.293578
170 2 3.22452 19.5475 2.28144 -2401.86 -2430.33 3159.25 -0.874331 -16.2797 2.08266
171 2 1.6123 19.5475 4.55998 -2547.63 -2588.25 178.825 -2.78745 -27.2357 3.3539
172 2 2.41837 20.9437 0 2483.21 2481.59 -612.353 0.00384441 -1.94198 0.00608874
173 2 0.806157 20.9437 2.28143 -2401.62 -2432.19 3172.3 -0.0242352 -22.4814 0.0424284
174 2 4.03067 20.9437 4.55998 -2543.5 -2586.62 177.022 -0.0008928 -20.999 0.0564616
175 2 0.00010007 19.5475 6.83845 -2540.3 -2592.91 100.318 -5.0182 -45.5145 6.69836
176 2 3.22464 19.5475 9.11697 -2514.15 -2599.56 79.9591 -6.89904 -50.6322 5.33212
177 2 1.61249 19.5475 11.3954 -2482.6 -2610.34 101.317 -14.3807 -90.8937 8.99142
178 2 2.41847 20.9437 6.83847 -2531.13 -2592.64 83.8256 -0.0773637 -40.9701 0.0338404
179 2 0.806293 20.9437 9.11693 -2513.95 -2600.59 110.568 -0.160097 -72.3022 0.0345388
180 2 4.03084 20.9437 11.3955 -2475.92 -2612.17 83.179 -0.218139 -65.853 -0.0235917
181 2 0.000407572 19.5475 13.6739 -2420.85 -2623.49 140.948 -27.9469 -151.986 15.6313
182 2 3.22491 19.5474 15.9525 -2355.91 -2638.68 70.2355 -24.0373 -102.362 11.1814
183 2 1.61285 19.5474 18.2309 -2217.09 -2644.36 68.0392 -43.2468 -140.956 16.678
184 2 2.41874 20.9437 13.6739 -2414.19 -2626.01 97.5761 -0.331105 -116.292 -0.00249303
185 2 0.806702 20.9437 15.9524 -2297.74 -2640.13 121.647 -0.371409 -182.101 0.0688677
186 2 4.03103 20.9437 18.231 -2285.4 -2658.22 43.5023 -0.588867 -64.5965 -0.0555269
187 2 0.000803984 19.5474 20.5094 -2015.77 -2642.49 151.162 -68.8533 -160.527 23.1847
188 2 3.22459 19.5473 22.7881 -1970.44 -2484.12 3082.25 -7.95101 26.8221 19.8151
189 2 1.61218 19.5474 25.0696 1831.02 1743.5 -438.313 0.418655 2.38757 0.945282
190 2 2.41887 20.9437 20.5095 -2146.48 -2653.82 123.618 -0.484029 -69.5142 0.0434151
191 2 0.806632 20.9437 22.788 -1847.63 -2484.69 3085.47 -0.210919 -49.3658 0.0839427
192 2 4.03008 20.9437 25.0696 1846.01 1743.36 -438.895 -0.0668459 8.00589 -0.00518708
385 2 4.83674 0 0 2481.13 2481.86 -616.443 0.0907278 0.856815 0.206236
1597 2 19.3469 5.58498 13.6742 -2588.28 -2588.36 -42.7199 18.123 4.88264 4.78217
1573 2 19.347 2.79249 13.6742 -2588.63 -2583.67 -36.8467 8.21544 0.100792 0.0419125
388 2 7.25512 1.39625 0 2481.2 2481.74 -616.541 0.238758 0.720872 0.500452
389 2 5.64285 1.39624 2.28146 -2430.38 -2415.24 3120.25 3.21342 7.87856 4.47722
390 2 8.86734 1.39623 4.56003 -2586.56 -2563.3 121.808 2.80075 4.97015 5.71182
1334 2 17.7352 19.548 15.9536 -2700.16 -2777.91 -1112.73 -220.32 -1484.94 -526.2
1333 2 14.5101 19.5474 13.673 -2560.39 -2486.03 1026.93 -9.58626 148.987 91.7887
1332 2 18.5411 20.9437 11.3961 -2520.29 -2660.73 -662.895 0.113067 -353.166 0.555615
394 2 7.25508 1.39622 6.83854 -2583.35 -2548.82 24.1204 5.7666 9.32351 8.81559
395 2 5.64282 1.39622 9.11705 -2577.68 -2534.42 23.4804 9.88755 15.0764 11.5303
396 2 8.86731 1.3962 11.3956 -2592.51 -2524.44 3.05609 8.38822 7.86851 14.8038
1331 2 15.3164 20.9437 9.11675 -2578.77 -2616.12 258.066 0.157155 -122.919 0.484913
1330 2 16.9287 20.9437 6.8385 -2563.1 -2623.78 6.59452 0.147235 -122.012 0.53017
1329 2 16.1226 19.5475 11.3953 -2593.94 -2647.16 188.774 -33.9092 -274.293 -22.2482
400 2 7.25504 1.39618 13.6741 -2587.55 -2495.28 4.44507 17.1749 14.3402 19.662
401 2 5.64278 1.39617 15.9526 -2579.79 -2476.33 0.695239 24.9328 17.5537 20.339
402 2 8.86734 1.39616 18.2312 -2615.17 -2480.39 -19.092 9.09713 -2.94383 10.7806
1328 2 17.7349 19.5475 9.11717 -2552.47 -2650.49 -193.885 -19.8884 -208.694 -45.0035
1327 2 14.5103 19.5475 6.8383 -2576.91 -2599.32 238.461 -6.00533 -50.9631 6.89806
1326 2 18.5409 20.9437 4.56006 -2557.41 -2605.38 57.0364 0.094928 -56.9274 0.43365
406 2 7.2551 1.39616 20.5097 -2617.26 -2472.52 87.3065 12.3711 1.46031 8.51291
407 2 5.64286 1.39617 22.7883 -2464.66 -2330.71 3079.78 10.4988 4.48128 5.04036
408 2 8.86746 1.39619 25.0698 1742.72 1757.25 -436.351 -2.16458 -0.305984 -0.146314
409 2 4.83674 2.7925 0 2481.14 2481.94 -616.28 0.26526 0.900798 0.604761
410 2 8.06123 2.79248 2.28146 -2432.5 -2416.2 3119.24 4.03855 6.31261 7.31361
411 2 6.44897 2.79247 4.56002 -2582.44 -2559.82 132.816 6.58793 9.07887 9.01156
412 2 7.25512 4.18874 0 2481.3 2481.96 -615.898 0.465026 0.835425 0.990591
413 2 5.64285 4.18873 2.28146 -2429.47 -2415.54 3124.3 6.26868 8.67572 8.36026
414 2 8.86734 4.18871 4.56002 -2586.25 -2562.34 131.923 5.85928 6.22324 11.915
415 2 4.83671 2.79247 6.83854 -2576.35 -2551.04 29.3317 9.70846 13.0756 10.4771
416 2 8.06119 2.79244 9.11705 -2586.01 -2536.63 21.0325 11.1051 11.2421 18.5197
417 2 6.44892 2.79243 11.3956 -2578.82 -2515.83 21.5794 20.7061 19.088 24.4691
418 2 7.25508 4.1887 6.83853 -2581.96 -2549.22 33.9469 11.5097 11.9115 17.2034
419 2 5.64281 4.18869 9.11704 -2575.16 -2538.17 31.4106 18.6307 18.5458 21.2188
420 2 8.8673 4.18865 11.3956 -2590.62 -2519.14 20.3738 17.7735 13.9532 32.9205
421 2 4.83665 2.79241 13.6741 -2568.24 -2500.48 16.171 30.0703 23.9304 26.8094
422 2 8.06116 2.79237 15.9526 -2595.76 -2470.07 -3.26175 27.7045 12.4039 30.5651
423 2 6.44891 2.79235 18.2312 -2589.39 -2452.23 -5.87496 37.9185 14.7711 27.7717
424 2 7.25502 4.18861 13.6741 -2580.54 -2489.1 20.825 35.6665 24.308 42.1286
425 2 5.64275 4.18859 15.9526 -2567.16 -2469.81 12.7549 51.0031 28.8562 42.879
426 2 8.86729 4.18855 18.2312 -2607.36 -2436.32 -9.99482 31.0586 7.18378 34.0199
427 2 4.83667 2.79236 20.5097 -2590.15 -2458.35 91.536 37.7734 12.7144 19.1718
428 2 8.06127 2.79237 22.7883 -2479.92 -2326.75 3079.14 -2.51604 -3.32766 2.2415
429 2 6.44904 2.79238 25.0698 1742.82 1761.36 -436.728 -0.267248 0.125474 0.237791
430 2 7.25505 4.18854 20.5097 -2604.02 -2427.61 89.8057 38.5855 8.71805 25.078
431 2 5.64283 4.18856 22.7883 -2453.86 -2295.53 3078.67 30.629 7.17963 12.6205
432 2 8.86746 4.18861 25.0698 1741.24 1760.21 -436.538 -3.47395 -0.485679 -0.161885
433 2 4.83674 5.58499 0 2481.12 2482.04 -616.08 0.389071 0.975072 0.88451
434 2 8.06123 5.58497 2.28145 -2431.5 -2414.81 3130.06 6.84387 7.81505 12.0547
435 2 6.44897 5.58496 4.56001 -2580.97 -2560.8 140.634 10.4665 11.0873 13.6667
436 2 7.25512 6.98124 0 2481.41 2482.28 -614.958 0.647088 1.02935 1.39899
437 2 5.64285 6.98122 2.28145 -2427.94 -2416.33 3128.95 8.4529 9.72754 10.8243
438 2 8.86734 6.9812 4.56001 -2585.54 -2560.89 149.189 8.8142 9.02772 18.1227
439 2 4.83671 5.58495 6.83853 -2574.79 -2555.54 33.4058 14.2232 14.9993 14.4416
440 2 8.06119 5.58491 9.11703 -2583.86 -2536.17 39.3446 18.04 16.7925 30.8904
441 2 6.44891 5.58488 11.3955 -2573.65 -2519.8 37.2963 31.9077 26.9618 38.4201
442 2 7.25508 6.98118 6.83851 -2579.9 -2550.86 48.1706 16.0102 16.1725 23.468
443 2 5.64281 6.98116 9.11703 -2572.55 -2545.6 40.467 23.5224 22.8188 26.2303
444 2 8.86729 6.9811 11.3955 -2586.85 -2515.6 52.3242 26.1508 25.0694 52.9695
445 2 4.83664 5.58486 13.6741 -2560.34 -2509.23 27.4876 44.4409 32.7202 40.8291
446 2 8.06112 5.58477 15.9526 -2581.33 -2446.32 20.8531 53.6644 30.4625 62.2697
447 2 6.44885 5.58474 18.2311 -2564.02 -2424.44 9.00038 72.6139 32.3131 55.6644
448 2 7.255 6.98105 13.674 -2569.44 -2489.98 48.0774 50.6467 40.0421 64.0001
449 2 5.64272 6.98102 15.9526 -2548.32 -2474.02 31.9283 70.3247 45.8084 63.9293
450 2 8.86721 6.9809 18.2311 -2577.71 -2378.62 19.0697 72.7964 34.7943 79.2915
451 2 4.83661 5.58475 20.5097 -2560.27 -2428.43 97.0164 71.8675 24.0683 37.6654
452 2 8.06123 5.58474 22.7883 -2470.68 -2264.02 3076.28 18.6149 -0.146884 12.3522
453 2 6.44902 5.58478 25.0697 1743.17 1765.81 -436.945 1.22795 0.237545 0.527198
454 2 7.25496 6.98088 20.5096 -2558.81 -2366.53 102.351 87.4346 29.5686 56.7874
455 2 5.64276 6.98092 22.7882 -2410.59 -2244.24 3079.86 68.5174 15.8898 25.9311
456 2 8.86743 6.98101 25.0697 1739.76 1766.54 -436.996 -2.05961 -0.488221 0.288675
457 2 4.83674 8.37749 0 2481.09 2482.11 -615.954 0.452983 1.01171 0.996468
458 2 8.06122 8.37746 2.28145 -2429.34 -2413.44 3145.16 9.27652 10.0961 15.9997
459 2 6.44896 8.37745 4.56001 -2578.51 -2562.99 149.484 12.7517 13.4919 16.0882
460 2 7.25512 9.77373 0 2481.54 2482.63 -613.878 0.752338 1.2045 1.61704
461 2 5.64285 9.77371 2.28145 -2425.53 -2417.95 3133.17 8.76679 9.98329 11.409
462 2 8.86734 9.77368 4.55999 -2582.77 -2560.23 173.239 11.3586 13.5345 23.3088
463 2 4.83671 8.37744 6.83853 -2573.14 -2562.08 36.0178 15.2646 16.3573 14.894
464 2 8.06119 8.37738 9.11699 -2580.77 -2538.65 64.4198 22.674 24.7745 40.2241
465 2 6.44892 8.37735 11.3955 -2568.81 -2531.17 54.4947 36.0803 35.145 45.3831
466 2 7.25508 9.77366 6.83849 -2576.01 -2555.19 63.9792 17.9881 20.8357 26.0783
467 2 5.64282 9.77365 9.11702 -2569.72 -2556.8 47.0619 22.5231 25.0156 25.5905
468 2 8.86729 9.77356 11.3954 -2581.03 -2519.91 95.4799 30.4261 39.4844 68.0659
469 2 4.83665 8.37734 13.6741 -2555.58 -2528.93 36.9701 45.7903 39.7091 45.9565
470 2 8.06108 8.37717 15.9525 -2554.48 -2438.4 64.3836 78.2915 60.0254 99.6968
471 2 6.44879 8.37713 18.2311 -2517.96 -2415.54 37.0681 104.336 61.067 88.8128
472 2 7.25501 9.77351 13.674 -2558.24 -2508.11 78.361 52.9445 55.0076 75.138
473 2 5.64274 9.77347 15.9525 -2532.08 -2501.73 50.667 67.1724 59.187 73.2431
474 2 8.86712 9.77324 18.2309 -2511.54 -2350.88 82.2885 125.916 88.8748 144.359
475 2 4.83655 8.37713 20.5096 -2499.13 -2410.98 109.97 103.955 44.31 61.255
476 2 8.0611 8.37706 22.7882 -2413.07 -2170.43 3079.46 84.5002 17.3953 39.1973
477 2 6.44894 8.37715 25.0697 1747.53 1771.91 -437.413 6.75242 0.707109 1.22963
478 2 7.25484 9.77321 20.5095 -2456.39 -2331.52 135.407 152.684 73.5669 105.071
479 2 5.64264 9.77326 22.7882 -2297.27 -2204.12 3088.69 127.438 37.3982 48.8458
480 2 8.86729 9.77335 25.0696 1742.21 1778.54 -437.735 7.32778 0.325234 1.93893
481 2 4.83674 11.17 0 2481.14 2482.1 -615.741 0.477246 0.875696 0.965508
482 2 8.06122 11.17 2.28144 -2425.36 -2413.29 3162.7 10.0681 11.8066 17.6109
483 2 6.44897 11.1699 4.56 -2574.59 -2567.05 158.14 11.7735 14.2201 15.6296
484 2 7.25512 12.5662 0 2481.75 2482.92 -612.681 0.757439 1.17456 1.56812
485 2 5.64286 12.5662 2.28145 -2421.21 -2420.3 3139.13 6.76975 7.86502 10.3994
486 2 8.86734 12.5662 4.55996 -2576.77 -2562.57 200.148 11.4061 17.2485 24.1353
487 2 4.83672 11.1699 6.83853 -2570.71 -2569.98 37.8305 11.4709 14.5921 12.9978
488 2 8.0612 11.1699 9.11695 -2572.95 -2546.88 91.0888 23.9189 32.5372 42.6828
489 2 6.44894 11.1698 11.3955 -2561.91 -2550.36 66.8742 30.6488 37.6346 42.1229
490 2 7.25509 12.5662 6.83847 -2569.19 -2563.27 78.542 14.8201 21.7663 23.5975
491 2 5.64285 12.5662 9.11701 -2564.11 -2570.42 52.2176 14.0275 20.3576 21.2067
492 2 8.86732 12.566 11.3954 -2562.91 -2536.58 136.973 31.4564 51.6826 67.7059
493 2 4.83669 11.1698 13.674 -2552.74 -2556.65 39.7854 30.4803 36.4038 40.0651
494 2 8.06109 11.1696 15.9524 -2526.04 -2471.32 115.277 80.0584 89.2424 120.345
495 2 6.4488 11.1696 18.231 -2467.54 -2457.47 69.816 100.656 88.7059 108.842
496 2 7.25507 12.566 13.6739 -2539.8 -2543.4 97.0708 39.9509 56.6606 64.7845
497 2 5.64282 12.566 15.9525 -2514.05 -2549 57.4605 35.2766 51.503 60.6808
498 2 8.8671 12.5657 18.2308 -2449.48 -2413.39 163.999 141.181 155.064 188.965
499 2 4.83653 11.1696 20.5096 -2414.24 -2440.48 128.426 100.864 67.6677 82.0154
500 2 8.06087 11.1693 22.788 -2239.35 -2086.24 3100.81 219.605 68.5568 90.3974
501 2 6.44875 11.1695 25.0696 1763.55 1778.03 -438.12 20.8535 2.01319 2.76012
502 2 7.25477 12.5656 20.5094 -2335.01 -2391.87 182.428 179.479 136.886 148.699
503 2 5.64252 12.5657 22.7881 -2112.44 -2233.48 3104.28 179.461 79.6111 80.1723
504 2 8.86692 12.5656 25.0694 1762.31 1797.25 -438.601 34.7775 3.18317 5.48185
505 2 4.83674 13.9625 0 2481.47 2482.05 -615.006 0.474775 0.422769 0.850071
506 2 8.06123 13.9625 2.28143 -2418.88 -2414.79 3181.31 8.30077 10.9521 15.8868
507 2 6.44898 13.9624 4.55999 -2567.52 -2572.48 168.586 7.43078 10.7976 13.0216
508 2 7.25512 15.3587 0 2482.15 2483.12 -611.258 0.645287 0.802516 1.25579
509 2 5.64287 15.3587 2.28144 -2413.79 -2422.99 3150.6 3.40661 2.29348 8.27388
510 2 8.86735 15.3587 4.55994 -2566.9 -2567.66 225.214 8.11795 17.0183 19.4208
511 2 4.83675 13.9624 6.83852 -2563.69 -2577.99 44.5848 4.06238 6.80002 10.9779
512 2 8.06123 13.9624 9.11692 -2558.47 -2562.05 111.823 17.4376 32.3225 35.1033
513 2 6.449 13.9624 11.3955 -2545.79 -2573.81 75.2725 14.5543 26.4782 32.0232
514 2 7.25512 15.3587 6.83845 -2556.5 -2573.1 92.7805 7.56626 15.4321 17.5453
515 2 5.6429 15.3587 9.11699 -2547.83 -2583.58 62.8552 1.8963 4.8312 15.9826
516 2 8.86737 15.3586 11.3953 -2534.95 -2565.13 158.606 21.7185 49.7517 48.0801
517 2 4.83679 13.9624 13.674 -2533.1 -2584.9 45.1373 2.86328 14.5356 31.0247
518 2 8.06117 13.9621 15.9523 -2494.82 -2541.24 133.462 58.3827 92.1978 92.0763
519 2 6.44891 13.9621 18.2309 -2437.02 -2544.56 73.0315 50.9835 83.0461 84.5468
520 2 7.25516 15.3585 13.6739 -2507.2 -2584.77 102.133 16.5509 38.2085 42.8985
521 2 5.64297 15.3585 15.9525 -2471.34 -2597.61 60.0231 -1.20037 20.2995 41.3869
522 2 8.86718 15.3582 18.2307 -2431.03 -2553.68 165.359 100.506 163.327 121.804
523 2 4.83664 13.9621 20.5096 -2354.98 -2523.71 129.325 40.6858 66.9964 77.0793
524 2 8.06055 13.9617 22.7879 -1934.9 -2135.79 3150.1 362.606 187.429 163.003
525 2 6.44838 13.9619 25.0696 1810.12 1776.41 -438.866 46.2964 6.4653 4.35774
526 2 7.25485 15.3582 20.5094 -2320.96 -2545.9 172.763 101.989 148.635 114.563
527 2 5.64249 15.3582 22.7881 -2016.02 -2355.43 3096.65 124.973 106.254 89.8174
528 2 8.8661 15.3579 25.0693 1864.05 1801.57 -439.323 100.209 16.7473 8.26234
529 2 4.83674 16.755 0 2482.12 2482.05 -613.556 0.396694 -0.348204 0.638832
530 2 8.06124 16.755 2.28142 -2410.29 -2417.13 3199.57 4.78027 6.93324 11.0525
531 2 6.449 16.7549 4.55998 -2556.29 -2577.95 182.808 2.30645 2.56527 8.98009
532 2 7.25512 18.1512 0 2482.68 2483.23 -609.808 0.388664 0.219006 0.714862
533 2 5.64288 18.1512 2.28144 -2404.78 -2425.31 3165.96 0.751127 -5.27961 4.85145
534 2 8.86736 18.1512 4.55992 -2555.87 -2572.84 243.906 3.65734 13.2842 10.7014
535 2 4.83678 16.7549 6.83849 -2548.2 -2585.08 61.1466 -2.63991 -8.41633 8.70123
536 2 8.06127 16.7549 9.11689 -2536.33 -2578.33 125.374 7.61702 22.3738 21.892
537 2 6.44908 16.7549 11.3954 -2514.6 -2595.09 84.5813 -0.403951 2.36824 19.9172
538 2 7.25515 18.1512 6.83844 -2540.37 -2581.33 106 1.63038 4.47698 9.46197
539 2 5.64296 18.1512 9.11696 -2523 -2593.84 78.6346 -4.22972 -16.786 9.29925
540 2 8.86742 18.1511 11.3953 -2503.1 -2590.33 162.63 9.33092 38.1375 22.9037
541 2 4.83692 16.7549 13.674 -2484.99 -2609.83 59.6343 -17.0318 -25.0094 21.2527
542 2 8.06128 16.7547 15.9523 -2453.1 -2611.74 122.952 28.2023 70.5172 50.1807
543 2 6.44907 16.7547 18.2309 -2393.74 -2624.46 62.1997 11.6492 54.6912 48.9592
544 2 7.25525 18.1511 13.6739 -2465.11 -2616.95 100.768 1.83842 11.021 20.1737
545 2 5.6431 18.1511 15.9524 -2412.34 -2635.35 62.5265 -13.814 -19.8009 20.9033
546 2 8.86728 18.151 18.2307 -2399.66 -2665.12 131.202 50.7152 140.762 50.6033
547 2 4.83681 16.7547 20.5095 -2299.74 -2610.64 122.626 -3.41385 45.3018 53.5083
548 2 8.06045 16.7544 22.7878 -1904.96 -2376.19 3128.33 218.365 237.049 153.838
549 2 6.44804 16.7545 25.0696 1856.6 1759.39 -439.457 42.7391 12.7402 4.36257
550 2 7.25496 18.1509 20.5094 -2315.91 -2666.23 149.627 42.9852 133.263 56.0442
551 2 5.64254 18.1509 22.7881 -1998.23 -2470.43 3088.59 54.0406 113.895 58.4549
552 2 8.86546 18.1506 25.0692 1945.41 1762.7 -439.959 72.974 30.0334 6.7061
553 2 4.83674 19.5475 0 2482.74 2482.09 -612.156 0.166243 -1.05908 0.254926
554 2 8.06124 19.5475 2.28142 -2403.42 -2418.89 3212.26 1.46507 2.71951 4.05823
555 2 6.44902 19.5475 4.55997 -2546.25 -2581.6 195.043 0.06564 -5.4436 3.36136
556 2 7.25512 20.9437 0 2482.94 2483.28 -609.135 0.0079293 -0.0858367 0.0160958
557 2 5.64288 20.9437 2.28143 -2400.33 -2426.28 3173.82 0.0549717 -9.14199 0.0961228
558 2 8.86737 20.9437 4.55992 -2550.76 -2575.06 251.188 0.122018 10.9559 0.176333
559 2 4.83681 19.5475 6.83847 -2532.36 -2589.73 78.1778 -2.50105 -22.9671 3.63774
560 2 8.0613 19.5474 9.11687 -2517.34 -2588.79 132.397 1.49362 11.5843 7.3382
561 2 6.44914 19.5474 11.3954 -2485.53 -2608.28 92.32 -2.85768 -19.2962 6.8018
562 2 7.25516 20.9437 6.83843 -2532.45 -2584.64 111.983 0.0491462 -1.23883 0.099882
563 2 5.64298 20.9437 9.11695 -2510.07 -2597.97 86.8778 -0.0746196 -27.5828 0.019637
564 2 8.86744 20.9437 11.3953 -2488.02 -2600.23 161.83 -0.115522 31.5628 -0.00857407
565 2 4.83701 19.5474 13.674 -2438.08 -2626.19 73.8838 -11.0107 -59.4587 7.90074