       N       E                     dE             d eps       ncg     rms          rms(c)
DAV:   1     0.478872914507E+03    0.47887E+03   -0.30738E+04  9612   0.114E+03
DAV:   2    -0.222767342627E+02   -0.50115E+03   -0.48010E+03 13044   0.255E+02
DAV:   3    -0.484050451987E+02   -0.26128E+02   -0.25127E+02 12012   0.563E+01
DAV:   4    -0.490925022158E+02   -0.68746E+00   -0.67934E+00 12324   0.973E+00
DAV:   5    -0.491167250213E+02   -0.24223E-01   -0.24184E-01 13560   0.153E+00    0.278E+01
RMM:   6    -0.472561219399E+02    0.18606E+01   -0.82535E+00  9657   0.132E+01    0.197E+01
RMM:   7    -0.580707089647E+02   -0.10815E+02   -0.19665E+01  9701   0.143E+01    0.270E+01
RMM:   8    -0.506203558439E+02    0.74504E+01   -0.71397E+00  9638   0.924E+00    0.167E+01
RMM:   9    -0.509846964270E+02   -0.36434E+00   -0.36723E+00  9638   0.581E+00    0.170E+01
RMM:  10    -0.487259682491E+02    0.22587E+01   -0.43791E+00  9635   0.672E+00    0.133E+01
RMM:  11    -0.465298571969E+02    0.21961E+01   -0.51025E-01  9603   0.272E+00    0.615E+00
RMM:  12    -0.462744236743E+02    0.25543E+00   -0.48598E-01  9673   0.230E+00    0.452E+00
RMM:  13    -0.461539055723E+02    0.12052E+00   -0.14761E-01  9663   0.129E+00    0.288E+00
RMM:  14    -0.461464977656E+02    0.74078E-02   -0.75427E-03 10609   0.209E-01    0.277E+00
RMM:  15    -0.460973864230E+02    0.49111E-01   -0.11548E-02  9673   0.399E-01    0.151E+00
RMM:  16    -0.460837079659E+02    0.13678E-01   -0.89449E-03  9687   0.323E-01    0.886E-01
RMM:  17    -0.460792311653E+02    0.44768E-02   -0.36016E-03  9767   0.194E-01    0.528E-01
RMM:  18    -0.460777833251E+02    0.14478E-02   -0.88068E-04 10049   0.992E-02    0.364E-01
RMM:  19    -0.460777891709E+02   -0.58458E-05   -0.36546E-04  9727   0.697E-02    0.371E-01
RMM:  20    -0.460771360541E+02    0.65312E-03   -0.18259E-04  9714   0.452E-02    0.288E-01
RMM:  21    -0.460763309989E+02    0.80506E-03   -0.32007E-04  9689   0.563E-02    0.884E-02
RMM:  22    -0.460762799644E+02    0.51034E-04   -0.59619E-05 10150   0.221E-02    0.502E-02
RMM:  23    -0.460762807106E+02   -0.74625E-06   -0.34385E-05  9744   0.181E-02    0.407E-02
RMM:  24    -0.460762955390E+02   -0.14828E-04   -0.11649E-05  9266   0.106E-02    0.473E-02
RMM:  25    -0.460762983847E+02   -0.28457E-05   -0.38981E-06  6645   0.714E-03    0.313E-02
RMM:  26    -0.460763028118E+02   -0.44271E-05   -0.21420E-06  5695   0.478E-03    0.117E-02
RMM:  27    -0.460763104651E+02   -0.76533E-05   -0.10181E-06  5375   0.307E-03    0.719E-03
RMM:  28    -0.460763222463E+02   -0.11781E-04   -0.10795E-06  5404   0.359E-03    0.963E-03
RMM:  29    -0.460763319316E+02   -0.96853E-05   -0.76883E-07  5238   0.241E-03    0.236E-03
RMM:  30    -0.460763426290E+02   -0.10697E-04   -0.13063E-06  5341   0.258E-03    0.688E-03
RMM:  31    -0.460763444672E+02   -0.18382E-05   -0.25907E-07  2871   0.139E-03    0.224E-03
RMM:  32    -0.460763455153E+02   -0.10481E-05   -0.14014E-07  2768   0.127E-03    0.863E-04
RMM:  33    -0.460763464899E+02   -0.97463E-06   -0.92343E-08  2444   0.110E-03
   1 F= -.46076346E+02 E0= -.46074784E+02  d E =-.460763E+02
       N       E                     dE             d eps       ncg     rms          rms(c)
DAV:   1    -0.460775294238E+02   -0.11839E-02   -0.73344E-02  9960   0.998E-01    0.512E-02
RMM:   2    -0.460785326922E+02   -0.10033E-02   -0.86414E-04  9687   0.145E-01    0.342E-01
RMM:   3    -0.460777842233E+02    0.74847E-03   -0.65893E-05  9843   0.298E-02    0.162E-01
RMM:   4    -0.460777155271E+02    0.68696E-04   -0.56944E-05  9680   0.261E-02    0.131E-01
RMM:   5    -0.460776167964E+02    0.98731E-04   -0.50193E-05  9662   0.239E-02    0.612E-02
RMM:   6    -0.460776041033E+02    0.12693E-04   -0.18672E-05  9633   0.156E-02    0.307E-02
RMM:   7    -0.460775940879E+02    0.10015E-04   -0.69649E-06  8244   0.940E-03    0.646E-03
RMM:   8    -0.460775934290E+02    0.65893E-06   -0.21568E-06  5269   0.528E-03
   2 F= -.46077593E+02 E0= -.46076033E+02  d E =-.124694E-02
       N       E                     dE             d eps       ncg     rms          rms(c)
DAV:   1    -0.460791731468E+02   -0.15791E-02   -0.22277E+00  9600   0.550E+00    0.282E-01
RMM:   2    -0.461046674340E+02   -0.25494E-01   -0.25830E-02  9682   0.806E-01    0.170E+00
RMM:   3    -0.460863505606E+02    0.18317E-01   -0.18668E-03  9853   0.158E-01    0.817E-01
RMM:   4    -0.460843019556E+02    0.20486E-02   -0.15117E-03  9671   0.135E-01    0.650E-01
RMM:   5    -0.460820614111E+02    0.22405E-02   -0.14875E-03  9675   0.130E-01    0.343E-01
RMM:   6    -0.460814941606E+02    0.56725E-03   -0.59674E-04  9680   0.879E-02    0.161E-01
RMM:   7    -0.460812102873E+02    0.28387E-03   -0.21342E-04  9671   0.518E-02    0.370E-02
RMM:   8    -0.460811870610E+02    0.23226E-04   -0.77999E-05  9688   0.298E-02    0.144E-02
RMM:   9    -0.460811873767E+02   -0.31576E-06   -0.10392E-05  9452   0.107E-02    0.525E-03
RMM:  10    -0.460811877083E+02   -0.33154E-06   -0.97252E-07  5275   0.428E-03
   3 F= -.46081188E+02 E0= -.46079647E+02  d E =-.359428E-02
       N       E                     dE             d eps       ncg     rms          rms(c)
DAV:   1    -0.460812943523E+02   -0.10698E-03   -0.91434E-03  9756   0.356E-01    0.140E-02
RMM:   2    -0.460813117044E+02   -0.17352E-04   -0.96930E-05  9662   0.518E-02    0.302E-02
RMM:   3    -0.460813131895E+02   -0.14851E-05   -0.87661E-06  8788   0.112E-02    0.349E-02
RMM:   4    -0.460813044322E+02    0.87573E-05   -0.21841E-06  5212   0.651E-03    0.113E-02
RMM:   5    -0.460813037186E+02    0.71364E-06   -0.19097E-06  5242   0.582E-03
   4 F= -.46081304E+02 E0= -.46079773E+02  d E =-.116010E-03
       N       E                     dE             d eps       ncg     rms          rms(c)
DAV:   1    -0.460815902961E+02   -0.28586E-03   -0.16612E-01  9600   0.152E+00    0.556E-02
RMM:   2    -0.460817606446E+02   -0.17035E-03   -0.17188E-03  9644   0.221E-01    0.418E-02
RMM:   3    -0.460817805536E+02   -0.19909E-04   -0.11706E-04  9823   0.458E-02    0.502E-02
RMM:   4    -0.460817911102E+02   -0.10557E-04   -0.51803E-05  9657   0.257E-02    0.712E-02
RMM:   5    -0.460817749462E+02    0.16164E-04   -0.15870E-05  9455   0.123E-02    0.565E-02
RMM:   6    -0.460817658163E+02    0.91300E-05   -0.24632E-05  9655   0.180E-02    0.411E-02
RMM:   7    -0.460817530751E+02    0.12741E-04   -0.92115E-06  9401   0.116E-02    0.182E-02
RMM:   8    -0.460817505613E+02    0.25138E-05   -0.15928E-06  5108   0.486E-03    0.805E-03
RMM:   9    -0.460817499261E+02    0.63517E-06   -0.56171E-07  4973   0.319E-03
   5 F= -.46081750E+02 E0= -.46080250E+02  d E =-.446208E-03
       N       E                     dE             d eps       ncg     rms          rms(c)
DAV:   1    -0.460818929730E+02   -0.14241E-03   -0.23110E-02  9600   0.561E-01    0.230E-02
RMM:   2    -0.460820690151E+02   -0.17604E-03   -0.30185E-04  9632   0.865E-02    0.130E-01
RMM:   3    -0.460819197262E+02    0.14929E-03   -0.30775E-05  9657   0.209E-02    0.161E-02
RMM:   4    -0.460819215412E+02   -0.18150E-05   -0.11508E-05  9262   0.117E-02    0.267E-02
RMM:   5    -0.460819166471E+02    0.48941E-05   -0.24111E-06  5396   0.656E-03    0.118E-02
RMM:   6    -0.460819209968E+02   -0.43497E-05   -0.47099E-06  7287   0.814E-03    0.216E-02
RMM:   7    -0.460819175126E+02    0.34842E-05   -0.24835E-06  5443   0.648E-03    0.964E-03
RMM:   8    -0.460819166712E+02    0.84138E-06   -0.51703E-07  5022   0.307E-03
   6 F= -.46081917E+02 E0= -.46080431E+02  d E =-.166745E-03
       N       E                     dE             d eps       ncg     rms          rms(c)
DAV:   1    -0.460779769149E+02    0.39406E-02   -0.55803E+00  9600   0.871E+00    0.356E-01
RMM:   2    -0.461152505293E+02   -0.37274E-01   -0.72417E-02  9634   0.134E+00    0.189E+00
RMM:   3    -0.460845296444E+02    0.30721E-01   -0.69187E-03  9761   0.316E-01    0.234E-01
RMM:   4    -0.460848771329E+02   -0.34749E-03   -0.26924E-03  9639   0.177E-01    0.435E-01
RMM:   5    -0.460836101398E+02    0.12670E-02   -0.63532E-04  9678   0.988E-02    0.221E-01
RMM:   6    -0.460845636351E+02   -0.95350E-03   -0.11326E-03  9667   0.121E-01    0.345E-01
RMM:   7    -0.460835178952E+02    0.10457E-02   -0.50687E-04  9676   0.815E-02    0.143E-01
RMM:   8    -0.460833326617E+02    0.18523E-03   -0.76743E-05  9928   0.277E-02    0.205E-02
RMM:   9    -0.460833299015E+02    0.27601E-05   -0.11726E-05  9711   0.114E-02    0.102E-02
RMM:  10    -0.460833291730E+02    0.72852E-06   -0.40638E-06  6705   0.770E-03
   7 F= -.46083329E+02 E0= -.46082056E+02  d E =-.141250E-02
       N       E                     dE             d eps       ncg     rms          rms(c)
DAV:   1    -0.460833463888E+02   -0.16487E-04   -0.13292E-03 11028   0.134E-01    0.782E-03
RMM:   2    -0.460833916579E+02   -0.45269E-04   -0.24227E-05  9596   0.217E-02    0.720E-02
RMM:   3    -0.460833498035E+02    0.41854E-04   -0.35675E-06  6499   0.690E-03    0.179E-02
RMM:   4    -0.460833504747E+02   -0.67117E-06   -0.15899E-06  5278   0.501E-03
   8 F= -.46083350E+02 E0= -.46082082E+02  d E =-.213017E-04
       N       E                     dE             d eps       ncg     rms          rms(c)
DAV:   1    -0.460833726523E+02   -0.22849E-04   -0.19857E-02  9600   0.517E-01    0.303E-02
RMM:   2    -0.460834871659E+02   -0.11451E-03   -0.26068E-04  9673   0.800E-02    0.108E-01
RMM:   3    -0.460834214685E+02    0.65697E-04   -0.18036E-05 10222   0.166E-02    0.609E-02
RMM:   4    -0.460834256793E+02   -0.42108E-05   -0.21587E-05  9612   0.158E-02    0.693E-02
RMM:   5    -0.460834013496E+02    0.24330E-04   -0.12557E-05  9555   0.125E-02    0.367E-02
RMM:   6    -0.460834005383E+02    0.81134E-06   -0.84584E-06  9030   0.106E-02
   9 F= -.46083401E+02 E0= -.46082144E+02  d E =-.500636E-04
