 vasp.5.4.4.18Apr17-6-g9f103f2a35 (build Nov 06 2023 00:46:14) complex          
  
 executed on             LinuxIFC date 2025.07.20  22:16:19
 running on   48 total cores
 distrk:  each k-point on   48 cores,    1 groups
 distr:  one band on NCORES_PER_BAND=   4 cores,   12 groups


--------------------------------------------------------------------------------------------------------


 INCAR:
 POTCAR:    PAW_PBE Pt 04Feb2005                  
 POTCAR:    PAW_PBE Pt 04Feb2005                  
  local pseudopotential read in
  partial core-charges read in
  partial kinetic energy density read in
  atomic valenz-charges read in
  non local Contribution for L=           2  read in
    real space projection operators read in
  non local Contribution for L=           2  read in
    real space projection operators read in
  non local Contribution for L=           0  read in
    real space projection operators read in
  non local Contribution for L=           0  read in
    real space projection operators read in
  non local Contribution for L=           1  read in
    real space projection operators read in
  non local Contribution for L=           1  read in
    real space projection operators read in
    PAW grid and wavefunctions read in
 
   number of l-projection  operators is LMAX  =           6
   number of lm-projection operators is LMMAX =          18
 
  PAW_PBE Pt 04Feb2005                  :
 energy of atom  1       EATOM= -729.1176
 kinetic energy error for atom=    0.0056 (will be added to EATOM!!)
 
 
 POSCAR: Pt                                      
  positions in cartesian coordinates
  No initial velocities read in
 exchange correlation table for  LEXCH =        8
   RHO(1)=    0.500       N(1)  =     2000
   RHO(2)=  100.500       N(2)  =     4000

 VTST: version 3.2, (02/03/18)

 CHAIN: initializing optimizer
 
 OPT: Using VASP QUASI-newton optimizer
 CHAIN: Read ICHAIN            0
 
 POSCAR: Pt                                      
  positions in cartesian coordinates
  No initial velocities read in
 


--------------------------------------------------------------------------------------------------------


 ion  position               nearest neighbor table
   1  0.000  0.000  0.000-   2 2.78   5 2.80   5 2.80   4 2.82   4 2.82   4 2.82   4 2.82
   2  0.667  0.000  0.090-   1 2.78   3 2.78   4 2.80   4 2.80   6 2.80   6 2.80   5 2.82   5 2.82
                             5 2.82   5 2.82
   3  0.333  0.000  0.181-   7 2.78   2 2.78   8 2.80   8 2.80   5 2.80   5 2.80   6 2.82   6 2.82
                             6 2.82   6 2.82
   4  0.500  0.500  0.000-   5 2.78   2 2.80   2 2.80   1 2.82   1 2.82   1 2.82   1 2.82
   5  0.167  0.500  0.090-   4 2.78   6 2.78   1 2.80   1 2.80   3 2.80   3 2.80   2 2.82   2 2.82
                             2 2.82   2 2.82
   6  0.833  0.500  0.181-   8 2.78   5 2.78   7 2.80   7 2.80   2 2.80   2 2.80   3 2.82   3 2.82
                             3 2.82   3 2.82
   7  0.000  0.000  0.271-   3 2.78   6 2.80   6 2.80   8 2.82   8 2.82   8 2.82   8 2.82
   8  0.500  0.500  0.271-   6 2.78   3 2.80   3 2.80   7 2.82   7 2.82   7 2.82   7 2.82
 

IMPORTANT INFORMATION: All symmetrisations will be switched off!
NOSYMM: (Re-)initialisation of all symmetry stuff for point group C_1.

 
 
 KPOINTS: K-Spacing Value to Generate K-Mesh: 0.02

Automatic generation of k-mesh.
Space group operators:
 irot       det(A)        alpha          n_x          n_y          n_z        tau_x        tau_y        tau_z
    1     1.000000     0.000001     1.000000     0.000000     0.000000     0.000000     0.000000     0.000000
 
 Subroutine IBZKPT returns following result:
 ===========================================
 
 Found    100 irreducible k-points:
 
 Following reciprocal coordinates:
            Coordinates               Weight
  0.000000  0.000000  0.000000      1.000000
  0.090909  0.000000  0.000000      2.000000
  0.181818  0.000000  0.000000      2.000000
  0.272727  0.000000  0.000000      2.000000
  0.363636  0.000000  0.000000      2.000000
  0.454545  0.000000  0.000000      2.000000
  0.000000  0.055556  0.000000      2.000000
  0.090909  0.055556  0.000000      2.000000
  0.181818  0.055556  0.000000      2.000000
  0.272727  0.055556  0.000000      2.000000
  0.363636  0.055556  0.000000      2.000000
  0.454545  0.055556  0.000000      2.000000
 -0.454545  0.055556  0.000000      2.000000
 -0.363636  0.055556  0.000000      2.000000
 -0.272727  0.055556  0.000000      2.000000
 -0.181818  0.055556  0.000000      2.000000
 -0.090909  0.055556  0.000000      2.000000
  0.000000  0.111111  0.000000      2.000000
  0.090909  0.111111  0.000000      2.000000
  0.181818  0.111111  0.000000      2.000000
  0.272727  0.111111  0.000000      2.000000
  0.363636  0.111111  0.000000      2.000000
  0.454545  0.111111  0.000000      2.000000
 -0.454545  0.111111  0.000000      2.000000
 -0.363636  0.111111  0.000000      2.000000
 -0.272727  0.111111  0.000000      2.000000
 -0.181818  0.111111  0.000000      2.000000
 -0.090909  0.111111  0.000000      2.000000
  0.000000  0.166667  0.000000      2.000000
  0.090909  0.166667  0.000000      2.000000
  0.181818  0.166667  0.000000      2.000000
  0.272727  0.166667  0.000000      2.000000
  0.363636  0.166667  0.000000      2.000000
  0.454545  0.166667  0.000000      2.000000
 -0.454545  0.166667  0.000000      2.000000
 -0.363636  0.166667  0.000000      2.000000
 -0.272727  0.166667  0.000000      2.000000
 -0.181818  0.166667  0.000000      2.000000
 -0.090909  0.166667  0.000000      2.000000
  0.000000  0.222222  0.000000      2.000000
  0.090909  0.222222  0.000000      2.000000
  0.181818  0.222222  0.000000      2.000000
  0.272727  0.222222  0.000000      2.000000
  0.363636  0.222222  0.000000      2.000000
  0.454545  0.222222  0.000000      2.000000
 -0.454545  0.222222  0.000000      2.000000
 -0.363636  0.222222  0.000000      2.000000
 -0.272727  0.222222  0.000000      2.000000
 -0.181818  0.222222  0.000000      2.000000
 -0.090909  0.222222  0.000000      2.000000
  0.000000  0.277778  0.000000      2.000000
  0.090909  0.277778  0.000000      2.000000
  0.181818  0.277778  0.000000      2.000000
  0.272727  0.277778  0.000000      2.000000
  0.363636  0.277778  0.000000      2.000000
  0.454545  0.277778  0.000000      2.000000
 -0.454545  0.277778  0.000000      2.000000
 -0.363636  0.277778  0.000000      2.000000
 -0.272727  0.277778  0.000000      2.000000
 -0.181818  0.277778  0.000000      2.000000
 -0.090909  0.277778  0.000000      2.000000
  0.000000  0.333333  0.000000      2.000000
  0.090909  0.333333  0.000000      2.000000
  0.181818  0.333333  0.000000      2.000000
  0.272727  0.333333  0.000000      2.000000
  0.363636  0.333333  0.000000      2.000000
  0.454545  0.333333  0.000000      2.000000
 -0.454545  0.333333  0.000000      2.000000
 -0.363636  0.333333  0.000000      2.000000
 -0.272727  0.333333  0.000000      2.000000
 -0.181818  0.333333  0.000000      2.000000
 -0.090909  0.333333  0.000000      2.000000
  0.000000  0.388889  0.000000      2.000000
  0.090909  0.388889  0.000000      2.000000
  0.181818  0.388889  0.000000      2.000000
  0.272727  0.388889  0.000000      2.000000
  0.363636  0.388889  0.000000      2.000000
  0.454545  0.388889  0.000000      2.000000
 -0.454545  0.388889  0.000000      2.000000
 -0.363636  0.388889  0.000000      2.000000
 -0.272727  0.388889  0.000000      2.000000
 -0.181818  0.388889  0.000000      2.000000
 -0.090909  0.388889  0.000000      2.000000
  0.000000  0.444444  0.000000      2.000000
  0.090909  0.444444  0.000000      2.000000
  0.181818  0.444444  0.000000      2.000000
  0.272727  0.444444  0.000000      2.000000
  0.363636  0.444444  0.000000      2.000000
  0.454545  0.444444  0.000000      2.000000
 -0.454545  0.444444  0.000000      2.000000
 -0.363636  0.444444  0.000000      2.000000
 -0.272727  0.444444  0.000000      2.000000
 -0.181818  0.444444  0.000000      2.000000
 -0.090909  0.444444  0.000000      2.000000
  0.000000  0.500000  0.000000      1.000000
  0.090909  0.500000  0.000000      2.000000
  0.181818  0.500000  0.000000      2.000000
  0.272727  0.500000  0.000000      2.000000
  0.363636  0.500000  0.000000      2.000000
  0.454545  0.500000  0.000000      2.000000
 
 Following cartesian coordinates:
            Coordinates               Weight
  0.000000  0.000000  0.000000      1.000000
  0.018710  0.000000  0.000000      2.000000
  0.037420  0.000000  0.000000      2.000000
  0.056129  0.000000  0.000000      2.000000
  0.074839  0.000000  0.000000      2.000000
  0.093549  0.000000  0.000000      2.000000
  0.000000  0.019416  0.000000      2.000000
  0.018710  0.019416  0.000000      2.000000
  0.037420  0.019416  0.000000      2.000000
  0.056129  0.019416  0.000000      2.000000
  0.074839  0.019416  0.000000      2.000000
  0.093549  0.019416  0.000000      2.000000
 -0.093549  0.019416  0.000000      2.000000
 -0.074839  0.019416  0.000000      2.000000
 -0.056129  0.019416  0.000000      2.000000
 -0.037420  0.019416  0.000000      2.000000
 -0.018710  0.019416  0.000000      2.000000
  0.000000  0.038831  0.000000      2.000000
  0.018710  0.038831  0.000000      2.000000
  0.037420  0.038831  0.000000      2.000000
  0.056129  0.038831  0.000000      2.000000
  0.074839  0.038831  0.000000      2.000000
  0.093549  0.038831  0.000000      2.000000
 -0.093549  0.038831  0.000000      2.000000
 -0.074839  0.038831  0.000000      2.000000
 -0.056129  0.038831  0.000000      2.000000
 -0.037420  0.038831  0.000000      2.000000
 -0.018710  0.038831  0.000000      2.000000
  0.000000  0.058247  0.000000      2.000000
  0.018710  0.058247  0.000000      2.000000
  0.037420  0.058247  0.000000      2.000000
  0.056129  0.058247  0.000000      2.000000
  0.074839  0.058247  0.000000      2.000000
  0.093549  0.058247  0.000000      2.000000
 -0.093549  0.058247  0.000000      2.000000
 -0.074839  0.058247  0.000000      2.000000
 -0.056129  0.058247  0.000000      2.000000
 -0.037420  0.058247  0.000000      2.000000
 -0.018710  0.058247  0.000000      2.000000
  0.000000  0.077662  0.000000      2.000000
  0.018710  0.077662  0.000000      2.000000
  0.037420  0.077662  0.000000      2.000000
  0.056129  0.077662  0.000000      2.000000
  0.074839  0.077662  0.000000      2.000000
  0.093549  0.077662  0.000000      2.000000
 -0.093549  0.077662  0.000000      2.000000
 -0.074839  0.077662  0.000000      2.000000
 -0.056129  0.077662  0.000000      2.000000
 -0.037420  0.077662  0.000000      2.000000
 -0.018710  0.077662  0.000000      2.000000
  0.000000  0.097078  0.000000      2.000000
  0.018710  0.097078  0.000000      2.000000
  0.037420  0.097078  0.000000      2.000000
  0.056129  0.097078  0.000000      2.000000
  0.074839  0.097078  0.000000      2.000000
  0.093549  0.097078  0.000000      2.000000
 -0.093549  0.097078  0.000000      2.000000
 -0.074839  0.097078  0.000000      2.000000
 -0.056129  0.097078  0.000000      2.000000
 -0.037420  0.097078  0.000000      2.000000
 -0.018710  0.097078  0.000000      2.000000
  0.000000  0.116493  0.000000      2.000000
  0.018710  0.116493  0.000000      2.000000
  0.037420  0.116493  0.000000      2.000000
  0.056129  0.116493  0.000000      2.000000
  0.074839  0.116493  0.000000      2.000000
  0.093549  0.116493  0.000000      2.000000
 -0.093549  0.116493  0.000000      2.000000
 -0.074839  0.116493  0.000000      2.000000
 -0.056129  0.116493  0.000000      2.000000
 -0.037420  0.116493  0.000000      2.000000
 -0.018710  0.116493  0.000000      2.000000
  0.000000  0.135909  0.000000      2.000000
  0.018710  0.135909  0.000000      2.000000
  0.037420  0.135909  0.000000      2.000000
  0.056129  0.135909  0.000000      2.000000
  0.074839  0.135909  0.000000      2.000000
  0.093549  0.135909  0.000000      2.000000
 -0.093549  0.135909  0.000000      2.000000
 -0.074839  0.135909  0.000000      2.000000
 -0.056129  0.135909  0.000000      2.000000
 -0.037420  0.135909  0.000000      2.000000
 -0.018710  0.135909  0.000000      2.000000
  0.000000  0.155325  0.000000      2.000000
  0.018710  0.155325  0.000000      2.000000
  0.037420  0.155325  0.000000      2.000000
  0.056129  0.155325  0.000000      2.000000
  0.074839  0.155325  0.000000      2.000000
  0.093549  0.155325  0.000000      2.000000
 -0.093549  0.155325  0.000000      2.000000
 -0.074839  0.155325  0.000000      2.000000
 -0.056129  0.155325  0.000000      2.000000
 -0.037420  0.155325  0.000000      2.000000
 -0.018710  0.155325  0.000000      2.000000
  0.000000  0.174740  0.000000      1.000000
  0.018710  0.174740  0.000000      2.000000
  0.037420  0.174740  0.000000      2.000000
  0.056129  0.174740  0.000000      2.000000
  0.074839  0.174740  0.000000      2.000000
  0.093549  0.174740  0.000000      2.000000
 


--------------------------------------------------------------------------------------------------------




 Dimension of arrays:
   k-points           NKPTS =    100   k-points in BZ     NKDIM =    100   number of bands    NBANDS=     48
   number of dos      NEDOS =    301   number of ions     NIONS =      8
   non local maximal  LDIM  =      6   non local SUM 2l+1 LMDIM =     18
   total plane-waves  NPLWV =  42336
   max r-space proj   IRMAX =      1   max aug-charges    IRDMAX=   7576
   dimension x,y,z NGX =    24 NGY =   14 NGZ =  126
   dimension x,y,z NGXF=    48 NGYF=   28 NGZF=  252
   support grid    NGXF=    48 NGYF=   28 NGZF=  252
   ions per type =               8
   NGX,Y,Z   is equivalent  to a cutoff of   8.21,  8.13,  8.38 a.u.
   NGXF,Y,Z  is equivalent  to a cutoff of  16.42, 16.27, 16.76 a.u.

 SYSTEM =  Pt111                                   
 POSCAR =  Pt                                      

 Startparameter for this run:
   NWRITE =      0    write-flag & timer
   PREC   = normal    normal or accurate (medium, high low for compatibility)
   ISTART =      0    job   : 0-new  1-cont  2-samecut
   ICHARG =      2    charge: 1-file 2-atom 10-const
   ISPIN  =      1    spin polarized calculation?
   LNONCOLLINEAR =      F non collinear calculations
   LSORBIT =      F    spin-orbit coupling
   INIWAV =      1    electr: 0-lowe 1-rand  2-diag
   LASPH  =      F    aspherical Exc in radial PAW
   METAGGA=      F    non-selfconsistent MetaGGA calc.

 Electronic Relaxation 1
   ENCUT  =  400.0 eV  29.40 Ry    5.42 a.u.   7.92  4.67 40.77*2*pi/ulx,y,z
   ENINI  =  400.0     initial cutoff
   ENAUG  =  359.0 eV  augmentation charge cutoff
   NELM   =     60;   NELMIN=  2; NELMDL= -5     # of ELM steps 
   EDIFF  = 0.1E-05   stopping-criterion for ELM
   LREAL  =      F    real-space projection
   NLSPLINE    = F    spline interpolate recip. space projectors
   LCOMPAT=      F    compatible to vasp.4.4
   GGA_COMPAT  = T    GGA compatible to vasp.4.4-vasp.4.6
   LMAXPAW     = -100 max onsite density
   LMAXMIX     =    2 max onsite mixed and CHGCAR
   VOSKOWN=      0    Vosko Wilk Nusair interpolation
   ROPT   =    0.00000
 Ionic relaxation
   EDIFFG = -.1E-01   stopping-criterion for IOM
   NSW    =     50    number of steps for IOM
   NBLOCK =      1;   KBLOCK =     50    inner block; outer block 
   IBRION =      1    ionic relax: 0-MD 1-quasi-New 2-CG
   NFREE  =      0    steps in history (QN), initial steepest desc. (CG)
   ISIF   =      2    stress and relaxation
   IWAVPR =     11    prediction:  0-non 1-charg 2-wave 3-comb
   ISYM   =      0    0-nonsym 1-usesym 2-fastsym
   LCORR  =      T    Harris-Foulkes like correction to forces

   POTIM  = 0.1000    time-step for ionic-motion
   TEIN   =    0.0    initial temperature
   TEBEG  =    0.0;   TEEND  =   0.0 temperature during run
   SMASS  =  -3.00    Nose mass-parameter (am)
   estimated Nose-frequenzy (Omega)   =  0.10E-29 period in steps =****** mass=  -0.540E-27a.u.
   SCALEE = 1.0000    scale energy and forces
   NPACO  =    256;   APACO  = 16.0  distance and # of slots for P.C.
   PSTRESS=    0.0 pullay stress

  Mass of Ions in am
   POMASS = 195.08
  Ionic Valenz
   ZVAL   =  10.00
  Atomic Wigner-Seitz radii
   RWIGS  =  -1.00
  virtual crystal weights 
   VCA    =   1.00
   NELECT =      80.0000    total number of electrons
   NUPDOWN=      -1.0000    fix difference up-down

 DOS related values:
   EMIN   =  10.00;   EMAX   =-10.00  energy-range for DOS
   EFERMI =   0.00
   ISMEAR =     1;   SIGMA  =   0.10  broadening in eV -4-tet -1-fermi 0-gaus

 Electronic relaxation 2 (details)
   IALGO  =     68    algorithm
   LDIAG  =      T    sub-space diagonalisation (order eigenvalues)
   LSUBROT=      F    optimize rotation matrix (better conditioning)
   TURBO    =      0    0=normal 1=particle mesh
   IRESTART =      0    0=no restart 2=restart with 2 vectors
   NREBOOT  =      0    no. of reboots
   NMIN     =      0    reboot dimension
   EREF     =   0.00    reference energy to select bands
   IMIX   =      4    mixing-type and parameters
     AMIX     =   0.40;   BMIX     =  1.00
     AMIX_MAG =   1.60;   BMIX_MAG =  1.00
     AMIN     =   0.10
     WC   =   100.;   INIMIX=   1;  MIXPRE=   1;  MAXMIX= -45

 Intra band minimization:
   WEIMIN = 0.0010     energy-eigenvalue tresh-hold
   EBREAK =  0.52E-08  absolut break condition
   DEPER  =   0.30     relativ break condition  

   TIME   =   0.40     timestep for ELM

  volume/ion in A,a.u.               =      43.45       293.20
  Fermi-wavevector in a.u.,A,eV,Ry     =   1.003275  1.895914 13.695085  1.006560
  Thomas-Fermi vector in A             =   2.135816
 
 Write flags
   LWAVE        =      F    write WAVECAR
   LDOWNSAMPLE  =      F    k-point downsampling of WAVECAR
   LCHARG       =      F    write CHGCAR
   LVTOT        =      F    write LOCPOT, total local potential
   LVHAR        =      F    write LOCPOT, Hartree potential only
   LELF         =      F    write electronic localiz. function (ELF)
   LORBIT       =      0    0 simple, 1 ext, 2 COOP (PROOUT), +10 PAW based schemes


 Dipole corrections
   LMONO  =      F    monopole corrections only (constant potential shift)
   LDIPOL =      T    correct potential (dipole corrections)
   IDIPOL =      3    1-x, 2-y, 3-z, 4-all directions 
   EPSILON=  1.0000000 bulk dielectric constant

 Exchange correlation treatment:
   GGA     =    --    GGA type
   LEXCH   =     8    internal setting for exchange type
   VOSKOWN=      0    Vosko Wilk Nusair interpolation
   LHFCALC =     F    Hartree Fock is set to
   LHFONE  =     F    Hartree Fock one center treatment
   AEXX    =    0.0000 exact exchange contribution

 Linear response parameters
   LEPSILON=     F    determine dielectric tensor
   LRPA    =     F    only Hartree local field effects (RPA)
   LNABLA  =     F    use nabla operator in PAW spheres
   LVEL    =     F    velocity operator in full k-point grid
   LINTERFAST=   F  fast interpolation
   KINTER  =     0    interpolate to denser k-point grid
   CSHIFT  =0.1000    complex shift for real part using Kramers Kronig
   OMEGAMAX=  -1.0    maximum frequency
   DEG_THRESHOLD= 0.2000000E-02 threshold for treating states as degnerate
   RTIME   =   -0.100 relaxation time in fs
  (WPLASMAI=    0.000 imaginary part of plasma frequency in eV, 0.658/RTIME)
   DFIELD  = 0.0000000 0.0000000 0.0000000 field for delta impulse in time
 
 Orbital magnetization related:
   ORBITALMAG=     F  switch on orbital magnetization
   LCHIMAG   =     F  perturbation theory with respect to B field
   DQ        =  0.001000  dq finite difference perturbation B field
   LLRAUG    =     F  two centre corrections for induced B field



--------------------------------------------------------------------------------------------------------


 quasi-Newton-method for relaxation of ions
   using selective dynamics as specified on POSCAR
   WARNING: If single coordinates had been selected the selection of coordinates
            is made according to the corresponding   d i r e c t   coordinates!
            Don't support selection of single cartesian coordinates -- sorry ...
  !
 charge density and potential will be updated during run
 non-spin polarized calculation
 RMM-DIIS sequential band-by-band and
  variant of blocked Davidson during initial phase
 perform sub-space diagonalisation
    before iterative eigenvector-optimisation
 modified Broyden-mixing scheme, WC =      100.0
 initial mixing is a Kerker type mixing with AMIX =  0.4000 and BMIX =      1.0000
 Hartree-type preconditioning will be used
 using additional bands            8
 reciprocal scheme for non local part
 use partial core corrections
 calculate Harris-corrections to forces 
   (improved forces if not selfconsistent)
 use gradient corrections 
 use of overlap-Matrix (Vanderbilt PP)
 Methfessel and Paxton  Order N= 1 SIGMA  =   0.10


--------------------------------------------------------------------------------------------------------


  energy-cutoff  :      400.00
  volume of cell :      347.58
      direct lattice vectors                 reciprocal lattice vectors
     4.858896010  0.000000000  0.000000000     0.205808068  0.000000000  0.000000000
     0.000000000  2.861390618  0.000000000     0.000000000  0.349480422  0.000000000
     0.000000000  0.000000000 25.000000000     0.000000000  0.000000000  0.040000000

  length of vectors
     4.858896010  2.861390618 25.000000000     0.205808068  0.349480422  0.040000000


 
 k-points in units of 2pi/SCALE and weight: K-Spacing Value to Generate K-Mesh: 0.02
   0.00000000  0.00000000  0.00000000       0.005
   0.01870982  0.00000000  0.00000000       0.010
   0.03741965  0.00000000  0.00000000       0.010
   0.05612947  0.00000000  0.00000000       0.010
   0.07483930  0.00000000  0.00000000       0.010
   0.09354912  0.00000000  0.00000000       0.010
   0.00000000  0.01941558  0.00000000       0.010
   0.01870982  0.01941558  0.00000000       0.010
   0.03741965  0.01941558  0.00000000       0.010
   0.05612947  0.01941558  0.00000000       0.010
   0.07483930  0.01941558  0.00000000       0.010
   0.09354912  0.01941558  0.00000000       0.010
  -0.09354912  0.01941558  0.00000000       0.010
  -0.07483930  0.01941558  0.00000000       0.010
  -0.05612947  0.01941558  0.00000000       0.010
  -0.03741965  0.01941558  0.00000000       0.010
  -0.01870982  0.01941558  0.00000000       0.010
   0.00000000  0.03883116  0.00000000       0.010
   0.01870982  0.03883116  0.00000000       0.010
   0.03741965  0.03883116  0.00000000       0.010
   0.05612947  0.03883116  0.00000000       0.010
   0.07483930  0.03883116  0.00000000       0.010
   0.09354912  0.03883116  0.00000000       0.010
  -0.09354912  0.03883116  0.00000000       0.010
  -0.07483930  0.03883116  0.00000000       0.010
  -0.05612947  0.03883116  0.00000000       0.010
  -0.03741965  0.03883116  0.00000000       0.010
  -0.01870982  0.03883116  0.00000000       0.010
   0.00000000  0.05824674  0.00000000       0.010
   0.01870982  0.05824674  0.00000000       0.010
   0.03741965  0.05824674  0.00000000       0.010
   0.05612947  0.05824674  0.00000000       0.010
   0.07483930  0.05824674  0.00000000       0.010
   0.09354912  0.05824674  0.00000000       0.010
  -0.09354912  0.05824674  0.00000000       0.010
  -0.07483930  0.05824674  0.00000000       0.010
  -0.05612947  0.05824674  0.00000000       0.010
  -0.03741965  0.05824674  0.00000000       0.010
  -0.01870982  0.05824674  0.00000000       0.010
   0.00000000  0.07766232  0.00000000       0.010
   0.01870982  0.07766232  0.00000000       0.010
   0.03741965  0.07766232  0.00000000       0.010
   0.05612947  0.07766232  0.00000000       0.010
   0.07483930  0.07766232  0.00000000       0.010
   0.09354912  0.07766232  0.00000000       0.010
  -0.09354912  0.07766232  0.00000000       0.010
  -0.07483930  0.07766232  0.00000000       0.010
  -0.05612947  0.07766232  0.00000000       0.010
  -0.03741965  0.07766232  0.00000000       0.010
  -0.01870982  0.07766232  0.00000000       0.010
   0.00000000  0.09707789  0.00000000       0.010
   0.01870982  0.09707789  0.00000000       0.010
   0.03741965  0.09707789  0.00000000       0.010
   0.05612947  0.09707789  0.00000000       0.010
   0.07483930  0.09707789  0.00000000       0.010
   0.09354912  0.09707789  0.00000000       0.010
  -0.09354912  0.09707789  0.00000000       0.010
  -0.07483930  0.09707789  0.00000000       0.010
  -0.05612947  0.09707789  0.00000000       0.010
  -0.03741965  0.09707789  0.00000000       0.010
  -0.01870982  0.09707789  0.00000000       0.010
   0.00000000  0.11649347  0.00000000       0.010
   0.01870982  0.11649347  0.00000000       0.010
   0.03741965  0.11649347  0.00000000       0.010
   0.05612947  0.11649347  0.00000000       0.010
   0.07483930  0.11649347  0.00000000       0.010
   0.09354912  0.11649347  0.00000000       0.010
  -0.09354912  0.11649347  0.00000000       0.010
  -0.07483930  0.11649347  0.00000000       0.010
  -0.05612947  0.11649347  0.00000000       0.010
  -0.03741965  0.11649347  0.00000000       0.010
  -0.01870982  0.11649347  0.00000000       0.010
   0.00000000  0.13590905  0.00000000       0.010
   0.01870982  0.13590905  0.00000000       0.010
   0.03741965  0.13590905  0.00000000       0.010
   0.05612947  0.13590905  0.00000000       0.010
   0.07483930  0.13590905  0.00000000       0.010
   0.09354912  0.13590905  0.00000000       0.010
  -0.09354912  0.13590905  0.00000000       0.010
  -0.07483930  0.13590905  0.00000000       0.010
  -0.05612947  0.13590905  0.00000000       0.010
  -0.03741965  0.13590905  0.00000000       0.010
  -0.01870982  0.13590905  0.00000000       0.010
   0.00000000  0.15532463  0.00000000       0.010
   0.01870982  0.15532463  0.00000000       0.010
   0.03741965  0.15532463  0.00000000       0.010
   0.05612947  0.15532463  0.00000000       0.010
   0.07483930  0.15532463  0.00000000       0.010
   0.09354912  0.15532463  0.00000000       0.010
  -0.09354912  0.15532463  0.00000000       0.010
  -0.07483930  0.15532463  0.00000000       0.010
  -0.05612947  0.15532463  0.00000000       0.010
  -0.03741965  0.15532463  0.00000000       0.010
  -0.01870982  0.15532463  0.00000000       0.010
   0.00000000  0.17474021  0.00000000       0.005
   0.01870982  0.17474021  0.00000000       0.010
   0.03741965  0.17474021  0.00000000       0.010
   0.05612947  0.17474021  0.00000000       0.010
   0.07483930  0.17474021  0.00000000       0.010
   0.09354912  0.17474021  0.00000000       0.010
 
 k-points in reciprocal lattice and weights: K-Spacing Value to Generate K-Mesh: 0.02
   0.00000000  0.00000000  0.00000000       0.005
   0.09090909  0.00000000  0.00000000       0.010
   0.18181818  0.00000000  0.00000000       0.010
   0.27272727  0.00000000  0.00000000       0.010
   0.36363636  0.00000000  0.00000000       0.010
   0.45454545  0.00000000  0.00000000       0.010
   0.00000000  0.05555556  0.00000000       0.010
   0.09090909  0.05555556  0.00000000       0.010
   0.18181818  0.05555556  0.00000000       0.010
   0.27272727  0.05555556  0.00000000       0.010
   0.36363636  0.05555556  0.00000000       0.010
   0.45454545  0.05555556  0.00000000       0.010
  -0.45454545  0.05555556  0.00000000       0.010
  -0.36363636  0.05555556  0.00000000       0.010
  -0.27272727  0.05555556  0.00000000       0.010
  -0.18181818  0.05555556  0.00000000       0.010
  -0.09090909  0.05555556  0.00000000       0.010
   0.00000000  0.11111111  0.00000000       0.010
   0.09090909  0.11111111  0.00000000       0.010
   0.18181818  0.11111111  0.00000000       0.010
   0.27272727  0.11111111  0.00000000       0.010
   0.36363636  0.11111111  0.00000000       0.010
   0.45454545  0.11111111  0.00000000       0.010
  -0.45454545  0.11111111  0.00000000       0.010
  -0.36363636  0.11111111  0.00000000       0.010
  -0.27272727  0.11111111  0.00000000       0.010
  -0.18181818  0.11111111  0.00000000       0.010
  -0.09090909  0.11111111  0.00000000       0.010
   0.00000000  0.16666667  0.00000000       0.010
   0.09090909  0.16666667  0.00000000       0.010
   0.18181818  0.16666667  0.00000000       0.010
   0.27272727  0.16666667  0.00000000       0.010
   0.36363636  0.16666667  0.00000000       0.010
   0.45454545  0.16666667  0.00000000       0.010
  -0.45454545  0.16666667  0.00000000       0.010
  -0.36363636  0.16666667  0.00000000       0.010
  -0.27272727  0.16666667  0.00000000       0.010
  -0.18181818  0.16666667  0.00000000       0.010
  -0.09090909  0.16666667  0.00000000       0.010
   0.00000000  0.22222222  0.00000000       0.010
   0.09090909  0.22222222  0.00000000       0.010
   0.18181818  0.22222222  0.00000000       0.010
   0.27272727  0.22222222  0.00000000       0.010
   0.36363636  0.22222222  0.00000000       0.010
   0.45454545  0.22222222  0.00000000       0.010
  -0.45454545  0.22222222  0.00000000       0.010
  -0.36363636  0.22222222  0.00000000       0.010
  -0.27272727  0.22222222  0.00000000       0.010
  -0.18181818  0.22222222  0.00000000       0.010
  -0.09090909  0.22222222  0.00000000       0.010
   0.00000000  0.27777778  0.00000000       0.010
   0.09090909  0.27777778  0.00000000       0.010
   0.18181818  0.27777778  0.00000000       0.010
   0.27272727  0.27777778  0.00000000       0.010
   0.36363636  0.27777778  0.00000000       0.010
   0.45454545  0.27777778  0.00000000       0.010
  -0.45454545  0.27777778  0.00000000       0.010
  -0.36363636  0.27777778  0.00000000       0.010
  -0.27272727  0.27777778  0.00000000       0.010
  -0.18181818  0.27777778  0.00000000       0.010
  -0.09090909  0.27777778  0.00000000       0.010
   0.00000000  0.33333333  0.00000000       0.010
   0.09090909  0.33333333  0.00000000       0.010
   0.18181818  0.33333333  0.00000000       0.010
   0.27272727  0.33333333  0.00000000       0.010
   0.36363636  0.33333333  0.00000000       0.010
   0.45454545  0.33333333  0.00000000       0.010
  -0.45454545  0.33333333  0.00000000       0.010
  -0.36363636  0.33333333  0.00000000       0.010
  -0.27272727  0.33333333  0.00000000       0.010
  -0.18181818  0.33333333  0.00000000       0.010
  -0.09090909  0.33333333  0.00000000       0.010
   0.00000000  0.38888889  0.00000000       0.010
   0.09090909  0.38888889  0.00000000       0.010
   0.18181818  0.38888889  0.00000000       0.010
   0.27272727  0.38888889  0.00000000       0.010
   0.36363636  0.38888889  0.00000000       0.010
   0.45454545  0.38888889  0.00000000       0.010
  -0.45454545  0.38888889  0.00000000       0.010
  -0.36363636  0.38888889  0.00000000       0.010
  -0.27272727  0.38888889  0.00000000       0.010
  -0.18181818  0.38888889  0.00000000       0.010
  -0.09090909  0.38888889  0.00000000       0.010
   0.00000000  0.44444444  0.00000000       0.010
   0.09090909  0.44444444  0.00000000       0.010
   0.18181818  0.44444444  0.00000000       0.010
   0.27272727  0.44444444  0.00000000       0.010
   0.36363636  0.44444444  0.00000000       0.010
   0.45454545  0.44444444  0.00000000       0.010
  -0.45454545  0.44444444  0.00000000       0.010
  -0.36363636  0.44444444  0.00000000       0.010
  -0.27272727  0.44444444  0.00000000       0.010
  -0.18181818  0.44444444  0.00000000       0.010
  -0.09090909  0.44444444  0.00000000       0.010
   0.00000000  0.50000000  0.00000000       0.005
   0.09090909  0.50000000  0.00000000       0.010
   0.18181818  0.50000000  0.00000000       0.010
   0.27272727  0.50000000  0.00000000       0.010
   0.36363636  0.50000000  0.00000000       0.010
   0.45454545  0.50000000  0.00000000       0.010
 
 position of ions in fractional coordinates (direct lattice) 
   0.00000000  0.00000000  0.00000000
   0.66666667  0.00000000  0.09049036
   0.33333333  0.00000000  0.18098072
   0.50000000  0.50000000  0.00000000
   0.16666667  0.50000000  0.09049036
   0.83333333  0.50000000  0.18098072
   0.00000000  0.00000000  0.27147108
   0.50000000  0.50000000  0.27147108
 
 position of ions in cartesian coordinates  (Angst):
   0.00000000  0.00000000  0.00000000
   3.23926402  0.00000000  2.26225896
   1.61963199  0.00000000  4.52451798
   2.42944800  1.43069531  0.00000000
   0.80981602  1.43069531  2.26225896
   4.04907999  1.43069531  4.52451798
   0.00000000  0.00000000  6.78677693
   2.42944800  1.43069531  6.78677693
 


--------------------------------------------------------------------------------------------------------


 k-point  1 :   0.0000 0.0000 0.0000  plane waves:    6339
 k-point  2 :   0.0909 0.0000 0.0000  plane waves:    6300
 k-point  3 :   0.1818 0.0000 0.0000  plane waves:    6308
 k-point  4 :   0.2727 0.0000 0.0000  plane waves:    6332
 k-point  5 :   0.3636 0.0000 0.0000  plane waves:    6354
 k-point  6 :   0.4545 0.0000 0.0000  plane waves:    6354
 k-point  7 :   0.0000 0.0556 0.0000  plane waves:    6313
 k-point  8 :   0.0909 0.0556 0.0000  plane waves:    6320
 k-point  9 :   0.1818 0.0556 0.0000  plane waves:    6332
 k-point 10 :   0.2727 0.0556 0.0000  plane waves:    6335
 k-point 11 :   0.3636 0.0556 0.0000  plane waves:    6360
 k-point 12 :   0.4545 0.0556 0.0000  plane waves:    6352
 k-point 13 :  -0.4545 0.0556 0.0000  plane waves:    6352
 k-point 14 :  -0.3636 0.0556 0.0000  plane waves:    6360
 k-point 15 :  -0.2727 0.0556 0.0000  plane waves:    6335
 k-point 16 :  -0.1818 0.0556 0.0000  plane waves:    6332
 k-point 17 :  -0.0909 0.0556 0.0000  plane waves:    6320
 k-point 18 :   0.0000 0.1111 0.0000  plane waves:    6313
 k-point 19 :   0.0909 0.1111 0.0000  plane waves:    6321
 k-point 20 :   0.1818 0.1111 0.0000  plane waves:    6328
 k-point 21 :   0.2727 0.1111 0.0000  plane waves:    6332
 k-point 22 :   0.3636 0.1111 0.0000  plane waves:    6337
 k-point 23 :   0.4545 0.1111 0.0000  plane waves:    6346
 k-point 24 :  -0.4545 0.1111 0.0000  plane waves:    6346
 k-point 25 :  -0.3636 0.1111 0.0000  plane waves:    6337
 k-point 26 :  -0.2727 0.1111 0.0000  plane waves:    6332
 k-point 27 :  -0.1818 0.1111 0.0000  plane waves:    6328
 k-point 28 :  -0.0909 0.1111 0.0000  plane waves:    6321
 k-point 29 :   0.0000 0.1667 0.0000  plane waves:    6315
 k-point 30 :   0.0909 0.1667 0.0000  plane waves:    6315
 k-point 31 :   0.1818 0.1667 0.0000  plane waves:    6322
 k-point 32 :   0.2727 0.1667 0.0000  plane waves:    6331
 k-point 33 :   0.3636 0.1667 0.0000  plane waves:    6338
 k-point 34 :   0.4545 0.1667 0.0000  plane waves:    6343
 k-point 35 :  -0.4545 0.1667 0.0000  plane waves:    6343
 k-point 36 :  -0.3636 0.1667 0.0000  plane waves:    6338
 k-point 37 :  -0.2727 0.1667 0.0000  plane waves:    6331
 k-point 38 :  -0.1818 0.1667 0.0000  plane waves:    6322
 k-point 39 :  -0.0909 0.1667 0.0000  plane waves:    6315
 k-point 40 :   0.0000 0.2222 0.0000  plane waves:    6301
 k-point 41 :   0.0909 0.2222 0.0000  plane waves:    6301
 k-point 42 :   0.1818 0.2222 0.0000  plane waves:    6307
 k-point 43 :   0.2727 0.2222 0.0000  plane waves:    6323
 k-point 44 :   0.3636 0.2222 0.0000  plane waves:    6312
 k-point 45 :   0.4545 0.2222 0.0000  plane waves:    6330
 k-point 46 :  -0.4545 0.2222 0.0000  plane waves:    6330
 k-point 47 :  -0.3636 0.2222 0.0000  plane waves:    6312
 k-point 48 :  -0.2727 0.2222 0.0000  plane waves:    6323
 k-point 49 :  -0.1818 0.2222 0.0000  plane waves:    6307
 k-point 50 :  -0.0909 0.2222 0.0000  plane waves:    6301
 k-point 51 :   0.0000 0.2778 0.0000  plane waves:    6287
 k-point 52 :   0.0909 0.2778 0.0000  plane waves:    6293
 k-point 53 :   0.1818 0.2778 0.0000  plane waves:    6303
 k-point 54 :   0.2727 0.2778 0.0000  plane waves:    6300
 k-point 55 :   0.3636 0.2778 0.0000  plane waves:    6303
 k-point 56 :   0.4545 0.2778 0.0000  plane waves:    6316
 k-point 57 :  -0.4545 0.2778 0.0000  plane waves:    6316
 k-point 58 :  -0.3636 0.2778 0.0000  plane waves:    6303
 k-point 59 :  -0.2727 0.2778 0.0000  plane waves:    6300
 k-point 60 :  -0.1818 0.2778 0.0000  plane waves:    6303
 k-point 61 :  -0.0909 0.2778 0.0000  plane waves:    6293
 k-point 62 :   0.0000 0.3333 0.0000  plane waves:    6269
 k-point 63 :   0.0909 0.3333 0.0000  plane waves:    6254
 k-point 64 :   0.1818 0.3333 0.0000  plane waves:    6300
 k-point 65 :   0.2727 0.3333 0.0000  plane waves:    6318
 k-point 66 :   0.3636 0.3333 0.0000  plane waves:    6308
 k-point 67 :   0.4545 0.3333 0.0000  plane waves:    6288
 k-point 68 :  -0.4545 0.3333 0.0000  plane waves:    6288
 k-point 69 :  -0.3636 0.3333 0.0000  plane waves:    6308
 k-point 70 :  -0.2727 0.3333 0.0000  plane waves:    6318
 k-point 71 :  -0.1818 0.3333 0.0000  plane waves:    6300
 k-point 72 :  -0.0909 0.3333 0.0000  plane waves:    6254
 k-point 73 :   0.0000 0.3889 0.0000  plane waves:    6296
 k-point 74 :   0.0909 0.3889 0.0000  plane waves:    6281
 k-point 75 :   0.1818 0.3889 0.0000  plane waves:    6295
 k-point 76 :   0.2727 0.3889 0.0000  plane waves:    6303
 k-point 77 :   0.3636 0.3889 0.0000  plane waves:    6290
 k-point 78 :   0.4545 0.3889 0.0000  plane waves:    6294
 k-point 79 :  -0.4545 0.3889 0.0000  plane waves:    6294
 k-point 80 :  -0.3636 0.3889 0.0000  plane waves:    6290
 k-point 81 :  -0.2727 0.3889 0.0000  plane waves:    6303
 k-point 82 :  -0.1818 0.3889 0.0000  plane waves:    6295
 k-point 83 :  -0.0909 0.3889 0.0000  plane waves:    6281
 k-point 84 :   0.0000 0.4444 0.0000  plane waves:    6306
 k-point 85 :   0.0909 0.4444 0.0000  plane waves:    6296
 k-point 86 :   0.1818 0.4444 0.0000  plane waves:    6307
 k-point 87 :   0.2727 0.4444 0.0000  plane waves:    6296
 k-point 88 :   0.3636 0.4444 0.0000  plane waves:    6300
 k-point 89 :   0.4545 0.4444 0.0000  plane waves:    6304
 k-point 90 :  -0.4545 0.4444 0.0000  plane waves:    6304
 k-point 91 :  -0.3636 0.4444 0.0000  plane waves:    6300
 k-point 92 :  -0.2727 0.4444 0.0000  plane waves:    6296
 k-point 93 :  -0.1818 0.4444 0.0000  plane waves:    6307
 k-point 94 :  -0.0909 0.4444 0.0000  plane waves:    6296
 k-point 95 :   0.0000 0.5000 0.0000  plane waves:    6310
 k-point 96 :   0.0909 0.5000 0.0000  plane waves:    6294
 k-point 97 :   0.1818 0.5000 0.0000  plane waves:    6306
 k-point 98 :   0.2727 0.5000 0.0000  plane waves:    6300
 k-point 99 :   0.3636 0.5000 0.0000  plane waves:    6298
 k-point ** :   0.4545 0.5000 0.0000  plane waves:    6314

 maximum and minimum number of plane-waves per node :      1621     1550

 maximum number of plane-waves:      6360
 maximum index in each direction: 
   IXMAX=    8   IYMAX=    4   IZMAX=   40
   IXMIN=   -8   IYMIN=   -5   IZMIN=  -40


 parallel 3D FFT for wavefunctions:
    minimum data exchange during FFTs selected (reduces bandwidth)
 parallel 3D FFT for charge:
    minimum data exchange during FFTs selected (reduces bandwidth)


 total amount of memory used by VASP MPI-rank0    64757. kBytes
=======================================================================

   base      :      30000. kBytes
   nonl-proj :      23012. kBytes
   fftplans  :        578. kBytes
   grid      :        768. kBytes
   one-center:         31. kBytes
   wavefun   :      10368. kBytes
 
     INWAV:  cpu time    0.0000: real time    0.0000
 Broyden mixing: mesh for mixing (old mesh)
   NGX = 15   NGY =  9   NGZ = 81
  (NGX  = 48   NGY  = 28   NGZ  =252)
  gives a total of  10935 points

 initial charge density was supplied:
 charge density of overlapping atoms calculated
 number of electron      80.0000000 magnetization 
 keeping initial charge density in first step


--------------------------------------------------------------------------------------------------------


 Maximum index for augmentation-charges          450 (set IRDMAX)


--------------------------------------------------------------------------------------------------------


 First call to EWALD:  gamma=   0.252
 Maximum number of real-space cells 4x 6x 1
 Maximum number of reciprocal cells 2x 1x 9

    FEWALD:  cpu time    0.0015: real time    0.0032


--------------------------------------- Iteration      1(   1)  ---------------------------------------


    POTLOK:  cpu time    0.0087: real time    0.0091
    SETDIJ:  cpu time    0.0027: real time    0.0028
     EDDAV:  cpu time    6.8850: real time    6.8919
       DOS:  cpu time    0.0022: real time    0.0022
    --------------------------------------------
      LOOP:  cpu time    6.8986: real time    6.9061

 eigenvalue-minimisations  :  9612
 total energy-change (2. order) : 0.4788729E+03  (-0.3073753E+04)
 number of electron      80.0000000 magnetization 
 augmentation part       80.0000000 magnetization 

 DIPCOR: dipole corrections for dipol
 direction  3 min pos   164,
 dipolmoment           0.000000      0.000000      0.000015 electrons x Angstroem
 Tr[quadrupol]      -259.991018

 energy correction for charged system         0.000000 eV
 dipol+quadrupol energy correction           -0.000000 eV
 added-field ion interaction          0.000174 eV  (added to PSCEN)


 Free energy of the ion-electron system (eV)
  ---------------------------------------------------
  alpha Z        PSCENC =       175.03122705
  Ewald energy   TEWEN  =     29944.76857929
  -Hartree energ DENC   =    -36073.43370303
  -exchange      EXHF   =         0.00000000
  -V(xc)+E(xc)   XCENC  =        26.54091206
  PAW double counting   =      5568.98828343    -5342.72235985
  entropy T*S    EENTRO =         0.00267130
  eigenvalues    EBANDS =       346.80168979
  atomic energy  EATOM  =      5832.89561447
  Solvation  Ediel_sol  =         0.00000000
  ---------------------------------------------------
  free energy    TOTEN  =       478.87291451 eV

  energy without entropy =      478.87024320  energy(sigma->0) =      478.87202407


--------------------------------------------------------------------------------------------------------




--------------------------------------- Iteration      1(   2)  ---------------------------------------


     EDDAV:  cpu time    9.4849: real time    9.4934
       DOS:  cpu time    0.0022: real time    0.0022
    --------------------------------------------
      LOOP:  cpu time    9.4871: real time    9.4956

 eigenvalue-minimisations  : 13044
 total energy-change (2. order) :-0.5011496E+03  (-0.4800970E+03)
 number of electron      80.0000000 magnetization 
 augmentation part       80.0000000 magnetization 

 DIPCOR: dipole corrections for dipol
 direction  3 min pos   164,
 dipolmoment           0.000000      0.000000      0.000015 electrons x Angstroem
 Tr[quadrupol]      -259.991018

 energy correction for charged system         0.000000 eV
 dipol+quadrupol energy correction           -0.000000 eV
 added-field ion interaction          0.000174 eV  (added to PSCEN)


 Free energy of the ion-electron system (eV)
  ---------------------------------------------------
  alpha Z        PSCENC =       175.03122705
  Ewald energy   TEWEN  =     29944.76857929
  -Hartree energ DENC   =    -36073.43370303
  -exchange      EXHF   =         0.00000000
  -V(xc)+E(xc)   XCENC  =        26.54091206
  PAW double counting   =      5568.98828343    -5342.72235985
  entropy T*S    EENTRO =         0.00134347
  eigenvalues    EBANDS =      -154.34663115
  atomic energy  EATOM  =      5832.89561447
  Solvation  Ediel_sol  =         0.00000000
  ---------------------------------------------------
  free energy    TOTEN  =       -22.27673426 eV

  energy without entropy =      -22.27807774  energy(sigma->0) =      -22.27718209


--------------------------------------------------------------------------------------------------------




--------------------------------------- Iteration      1(   3)  ---------------------------------------


     EDDAV:  cpu time    8.6559: real time    8.6639
       DOS:  cpu time    0.0023: real time    0.0023
    --------------------------------------------
      LOOP:  cpu time    8.6582: real time    8.6662

 eigenvalue-minimisations  : 12012
 total energy-change (2. order) :-0.2612831E+02  (-0.2512656E+02)
 number of electron      80.0000000 magnetization 
 augmentation part       80.0000000 magnetization 

 DIPCOR: dipole corrections for dipol
 direction  3 min pos   164,
 dipolmoment           0.000000      0.000000      0.000015 electrons x Angstroem
 Tr[quadrupol]      -259.991018

 energy correction for charged system         0.000000 eV
 dipol+quadrupol energy correction           -0.000000 eV
 added-field ion interaction          0.000174 eV  (added to PSCEN)


 Free energy of the ion-electron system (eV)
  ---------------------------------------------------
  alpha Z        PSCENC =       175.03122705
  Ewald energy   TEWEN  =     29944.76857929
  -Hartree energ DENC   =    -36073.43370303
  -exchange      EXHF   =         0.00000000
  -V(xc)+E(xc)   XCENC  =        26.54091206
  PAW double counting   =      5568.98828343    -5342.72235985
  entropy T*S    EENTRO =        -0.00443612
  eigenvalues    EBANDS =      -180.46916249
  atomic energy  EATOM  =      5832.89561447
  Solvation  Ediel_sol  =         0.00000000
  ---------------------------------------------------
  free energy    TOTEN  =       -48.40504520 eV

  energy without entropy =      -48.40060908  energy(sigma->0) =      -48.40356649


--------------------------------------------------------------------------------------------------------




--------------------------------------- Iteration      1(   4)  ---------------------------------------


     EDDAV:  cpu time    8.8491: real time    8.8571
       DOS:  cpu time    0.0025: real time    0.0024
    --------------------------------------------
      LOOP:  cpu time    8.8516: real time    8.8595

 eigenvalue-minimisations  : 12324
 total energy-change (2. order) :-0.6874570E+00  (-0.6793435E+00)
 number of electron      80.0000000 magnetization 
 augmentation part       80.0000000 magnetization 

 DIPCOR: dipole corrections for dipol
 direction  3 min pos   164,
 dipolmoment           0.000000      0.000000      0.000015 electrons x Angstroem
 Tr[quadrupol]      -259.991018

 energy correction for charged system         0.000000 eV
 dipol+quadrupol energy correction           -0.000000 eV
 added-field ion interaction          0.000174 eV  (added to PSCEN)


 Free energy of the ion-electron system (eV)
  ---------------------------------------------------
  alpha Z        PSCENC =       175.03122705
  Ewald energy   TEWEN  =     29944.76857929
  -Hartree energ DENC   =    -36073.43370303
  -exchange      EXHF   =         0.00000000
  -V(xc)+E(xc)   XCENC  =        26.54091206
  PAW double counting   =      5568.98828343    -5342.72235985
  entropy T*S    EENTRO =        -0.00437208
  eigenvalues    EBANDS =      -181.15668355
  atomic energy  EATOM  =      5832.89561447
  Solvation  Ediel_sol  =         0.00000000
  ---------------------------------------------------
  free energy    TOTEN  =       -49.09250222 eV

  energy without entropy =      -49.08813014  energy(sigma->0) =      -49.09104486


--------------------------------------------------------------------------------------------------------




--------------------------------------- Iteration      1(   5)  ---------------------------------------


     EDDAV:  cpu time    9.8175: real time    9.8276
       DOS:  cpu time    0.0024: real time    0.0024
    CHARGE:  cpu time    0.0678: real time    0.0679
    MIXING:  cpu time    0.0011: real time    0.0014
    --------------------------------------------
      LOOP:  cpu time    9.8888: real time    9.8993

 eigenvalue-minimisations  : 13560
 total energy-change (2. order) :-0.2422281E-01  (-0.2418362E-01)
 number of electron      79.9999858 magnetization 
 augmentation part       23.3258122 magnetization 

 DIPCOR: dipole corrections for dipol
 direction  3 min pos   164,
 dipolmoment           0.000000      0.000000      0.000015 electrons x Angstroem
 Tr[quadrupol]      -259.991018

 energy correction for charged system         0.000000 eV
 dipol+quadrupol energy correction           -0.000000 eV
 added-field ion interaction          0.000174 eV  (added to PSCEN)


 Broyden mixing:
  rms(total) = 0.27816E+01    rms(broyden)= 0.27816E+01
  rms(prec ) = 0.28148E+01
  weight for this iteration     100.00

 Free energy of the ion-electron system (eV)
  ---------------------------------------------------
  alpha Z        PSCENC =       175.03122705
  Ewald energy   TEWEN  =     29944.76857929
  -Hartree energ DENC   =    -36073.43370303
  -exchange      EXHF   =         0.00000000
  -V(xc)+E(xc)   XCENC  =        26.54091206
  PAW double counting   =      5568.98828343    -5342.72235985
  entropy T*S    EENTRO =        -0.00442285
  eigenvalues    EBANDS =      -181.18085559
  atomic energy  EATOM  =      5832.89561447
  Solvation  Ediel_sol  =         0.00000000
  ---------------------------------------------------
  free energy    TOTEN  =       -49.11672502 eV

  energy without entropy =      -49.11230217  energy(sigma->0) =      -49.11525074


--------------------------------------------------------------------------------------------------------




--------------------------------------- Iteration      1(   6)  ---------------------------------------


    POTLOK:  cpu time    0.0054: real time    0.0067
    SETDIJ:  cpu time    0.0021: real time    0.0021
    EDDIAG:  cpu time    0.7908: real time    0.7915
  RMM-DIIS:  cpu time    1.7485: real time    1.7500
    ORTHCH:  cpu time    0.1868: real time    0.1868
       DOS:  cpu time    0.0024: real time    0.0024
    CHARGE:  cpu time    0.0667: real time    0.0667
    MIXING:  cpu time    0.0006: real time    0.0007
    --------------------------------------------
      LOOP:  cpu time    2.8033: real time    2.8068

 eigenvalue-minimisations  :  9657
 total energy-change (2. order) : 0.1860603E+01  (-0.8253469E+00)
 number of electron      79.9999848 magnetization 
 augmentation part       24.6095901 magnetization 

 DIPCOR: dipole corrections for dipol
 direction  3 min pos   174,
 dipolmoment           0.000000      0.000000      0.016992 electrons x Angstroem
 Tr[quadrupol]      -258.958048

 energy correction for charged system         0.000000 eV
 dipol+quadrupol energy correction           -0.000075 eV
 added-field ion interaction          0.898281 eV  (added to PSCEN)


 Broyden mixing:
  rms(total) = 0.19697E+01    rms(broyden)= 0.19697E+01
  rms(prec ) = 0.20614E+01
  weight for this iteration     100.00

 eigenvalues of (default mixing * dielectric matrix)
  average eigenvalue GAMMA=   1.3561
  1.3561

 Free energy of the ion-electron system (eV)
  ---------------------------------------------------
  alpha Z        PSCENC =       175.92925800
  Ewald energy   TEWEN  =     29944.76857929
  -Hartree energ DENC   =    -35981.94169882
  -exchange      EXHF   =         0.00000000
  -V(xc)+E(xc)   XCENC  =        24.41407998
  PAW double counting   =      6095.37386089    -5880.39269556
  entropy T*S    EENTRO =        -0.00328055
  eigenvalues    EBANDS =      -258.29983965
  atomic energy  EATOM  =      5832.89561447
  Solvation  Ediel_sol  =         0.00000000
  ---------------------------------------------------
  free energy    TOTEN  =       -47.25612194 eV

  energy without entropy =      -47.25284139  energy(sigma->0) =      -47.25502842


--------------------------------------------------------------------------------------------------------




--------------------------------------- Iteration      1(   7)  ---------------------------------------


    POTLOK:  cpu time    0.0043: real time    0.0043
    SETDIJ:  cpu time    0.0020: real time    0.0020
    EDDIAG:  cpu time    0.7915: real time    0.7923
  RMM-DIIS:  cpu time    1.7175: real time    1.7200
    ORTHCH:  cpu time    0.1869: real time    0.1869
       DOS:  cpu time    0.0024: real time    0.0024
    CHARGE:  cpu time    0.0720: real time    0.0720
    MIXING:  cpu time    0.0004: real time    0.0004
    --------------------------------------------
      LOOP:  cpu time    2.7771: real time    2.7805

 eigenvalue-minimisations  :  9701
 total energy-change (2. order) :-0.1081459E+02  (-0.1966498E+01)
 number of electron      79.9999847 magnetization 
 augmentation part       24.2595587 magnetization 

 DIPCOR: dipole corrections for dipol
 direction  3 min pos   169,
 dipolmoment           0.000000      0.000000     -0.158051 electrons x Angstroem
 Tr[quadrupol]      -261.443850

 energy correction for charged system         0.000000 eV
 dipol+quadrupol energy correction           -0.006502 eV
 added-field ion interaction         -5.090193 eV  (added to PSCEN)


 Broyden mixing:
  rms(total) = 0.27047E+01    rms(broyden)= 0.27046E+01
  rms(prec ) = 0.32024E+01
  weight for this iteration     100.00

 eigenvalues of (default mixing * dielectric matrix)
  average eigenvalue GAMMA=   1.1867
  2.1066  0.2667

 Free energy of the ion-electron system (eV)
  ---------------------------------------------------
  alpha Z        PSCENC =       169.93435680
  Ewald energy   TEWEN  =     29944.76857929
  -Hartree energ DENC   =    -36050.31100701
  -exchange      EXHF   =         0.00000000
  -V(xc)+E(xc)   XCENC  =        23.73790321
  PAW double counting   =      6500.45248510    -6290.33672551
  entropy T*S    EENTRO =        -0.00360017
  eigenvalues    EBANDS =      -189.20831513
  atomic energy  EATOM  =      5832.89561447
  Solvation  Ediel_sol  =         0.00000000
  ---------------------------------------------------
  free energy    TOTEN  =       -58.07070896 eV

  energy without entropy =      -58.06710879  energy(sigma->0) =      -58.06950891


--------------------------------------------------------------------------------------------------------




--------------------------------------- Iteration      1(   8)  ---------------------------------------


    POTLOK:  cpu time    0.0045: real time    0.0045
    SETDIJ:  cpu time    0.0021: real time    0.0021
    EDDIAG:  cpu time    0.7901: real time    0.7910
  RMM-DIIS:  cpu time    1.7325: real time    1.7340
    ORTHCH:  cpu time    0.1876: real time    0.1877
       DOS:  cpu time    0.0025: real time    0.0025
    CHARGE:  cpu time    0.0698: real time    0.0698
    MIXING:  cpu time    0.0004: real time    0.0004
    --------------------------------------------
      LOOP:  cpu time    2.7895: real time    2.7919

 eigenvalue-minimisations  :  9638
 total energy-change (2. order) : 0.7450353E+01  (-0.7139693E+00)
 number of electron      79.9999847 magnetization 
 augmentation part       24.9042184 magnetization 

 DIPCOR: dipole corrections for dipol
 direction  3 min pos   167,
 dipolmoment           0.000000      0.000000      0.166593 electrons x Angstroem
 Tr[quadrupol]      -260.347812

 energy correction for charged system         0.000000 eV
 dipol+quadrupol energy correction           -0.007224 eV
 added-field ion interaction          3.988635 eV  (added to PSCEN)


 Broyden mixing:
  rms(total) = 0.16721E+01    rms(broyden)= 0.16721E+01
  rms(prec ) = 0.22922E+01
  weight for this iteration     100.00

 eigenvalues of (default mixing * dielectric matrix)
  average eigenvalue GAMMA=   0.9101
  2.1648  0.2827  0.2827

 Free energy of the ion-electron system (eV)
  ---------------------------------------------------
  alpha Z        PSCENC =       179.01246352
  Ewald energy   TEWEN  =     29944.76857929
  -Hartree energ DENC   =    -35989.43960671
  -exchange      EXHF   =         0.00000000
  -V(xc)+E(xc)   XCENC  =        23.29353071
  PAW double counting   =      6868.66136648    -6663.70125594
  entropy T*S    EENTRO =        -0.00105551
  eigenvalues    EBANDS =      -246.10999215
  atomic energy  EATOM  =      5832.89561447
  Solvation  Ediel_sol  =         0.00000000
  ---------------------------------------------------
  free energy    TOTEN  =       -50.62035584 eV

  energy without entropy =      -50.61930033  energy(sigma->0) =      -50.62000401


--------------------------------------------------------------------------------------------------------




--------------------------------------- Iteration      1(   9)  ---------------------------------------


    POTLOK:  cpu time    0.0047: real time    0.0047
    SETDIJ:  cpu time    0.0020: real time    0.0020
    EDDIAG:  cpu time    0.7929: real time    0.7937
  RMM-DIIS:  cpu time    1.7375: real time    1.7384
    ORTHCH:  cpu time    0.1876: real time    0.1886
       DOS:  cpu time    0.0022: real time    0.0022
    CHARGE:  cpu time    0.0710: real time    0.0710
    MIXING:  cpu time    0.0004: real time    0.0004
    --------------------------------------------
      LOOP:  cpu time    2.7983: real time    2.8010

 eigenvalue-minimisations  :  9638
 total energy-change (2. order) :-0.3643406E+00  (-0.3672316E+00)
 number of electron      79.9999836 magnetization 
 augmentation part       24.9326654 magnetization 

 DIPCOR: dipole corrections for dipol
 direction  3 min pos   162,
 dipolmoment           0.000000      0.000000     -0.209385 electrons x Angstroem
 Tr[quadrupol]      -259.785132

 energy correction for charged system         0.000000 eV
 dipol+quadrupol energy correction           -0.011412 eV
 added-field ion interaction         -0.687479 eV  (added to PSCEN)


 Broyden mixing:
  rms(total) = 0.16991E+01    rms(broyden)= 0.16990E+01
  rms(prec ) = 0.25925E+01
  weight for this iteration     100.00

 eigenvalues of (default mixing * dielectric matrix)
  average eigenvalue GAMMA=   0.8863
  2.2503  0.9004  0.2859  0.1088

 Free energy of the ion-electron system (eV)
  ---------------------------------------------------
  alpha Z        PSCENC =       174.33216142
  Ewald energy   TEWEN  =     29944.76857929
  -Hartree energ DENC   =    -35980.11165630
  -exchange      EXHF   =         0.00000000
  -V(xc)+E(xc)   XCENC  =        23.31345322
  PAW double counting   =      6908.37342573    -6703.79541545
  entropy T*S    EENTRO =         0.00053617
  eigenvalues    EBANDS =      -250.76139498
  atomic energy  EATOM  =      5832.89561447
  Solvation  Ediel_sol  =         0.00000000
  ---------------------------------------------------
  free energy    TOTEN  =       -50.98469643 eV

  energy without entropy =      -50.98523259  energy(sigma->0) =      -50.98487515


--------------------------------------------------------------------------------------------------------




--------------------------------------- Iteration      1(  10)  ---------------------------------------


    POTLOK:  cpu time    0.0049: real time    0.0052
    SETDIJ:  cpu time    0.0021: real time    0.0021
    EDDIAG:  cpu time    0.7987: real time    0.7995
  RMM-DIIS:  cpu time    1.7272: real time    1.7280
    ORTHCH:  cpu time    0.1886: real time    0.1889
       DOS:  cpu time    0.0025: real time    0.0024
    CHARGE:  cpu time    0.0675: real time    0.0681
    MIXING:  cpu time    0.0004: real time    0.0004
    --------------------------------------------
      LOOP:  cpu time    2.7919: real time    2.7947

 eigenvalue-minimisations  :  9635
 total energy-change (2. order) : 0.2258728E+01  (-0.4379118E+00)
 number of electron      79.9999848 magnetization 
 augmentation part       24.9398623 magnetization 

 DIPCOR: dipole corrections for dipol
 direction  3 min pos   163,
 dipolmoment           0.000000      0.000000      0.140764 electrons x Angstroem
 Tr[quadrupol]      -259.884554

 energy correction for charged system         0.000000 eV
 dipol+quadrupol energy correction           -0.005158 eV
 added-field ion interaction          1.043784 eV  (added to PSCEN)


 Broyden mixing:
  rms(total) = 0.13329E+01    rms(broyden)= 0.13328E+01
  rms(prec ) = 0.17730E+01
  weight for this iteration     100.00

 eigenvalues of (default mixing * dielectric matrix)
  average eigenvalue GAMMA=   0.8246
  2.3268  1.1970  0.2538  0.2538  0.0915

 Free energy of the ion-electron system (eV)
  ---------------------------------------------------
  alpha Z        PSCENC =       176.06967908
  Ewald energy   TEWEN  =     29944.76857929
  -Hartree energ DENC   =    -35983.81103205
  -exchange      EXHF   =         0.00000000
  -V(xc)+E(xc)   XCENC  =        23.40730621
  PAW double counting   =      6961.18305505    -6756.82704467
  entropy T*S    EENTRO =        -0.00249600
  eigenvalues    EBANDS =      -246.40962963
  atomic energy  EATOM  =      5832.89561447
  Solvation  Ediel_sol  =         0.00000000
  ---------------------------------------------------
  free energy    TOTEN  =       -48.72596825 eV

  energy without entropy =      -48.72347225  energy(sigma->0) =      -48.72513625


--------------------------------------------------------------------------------------------------------




--------------------------------------- Iteration      1(  11)  ---------------------------------------


    POTLOK:  cpu time    0.0061: real time    0.0082
    SETDIJ:  cpu time    0.0021: real time    0.0021
    EDDIAG:  cpu time    0.7942: real time    0.7942
  RMM-DIIS:  cpu time    1.6704: real time    1.6719
    ORTHCH:  cpu time    0.1879: real time    0.1879
       DOS:  cpu time    0.0026: real time    0.0026
    CHARGE:  cpu time    0.0668: real time    0.0668
    MIXING:  cpu time    0.0004: real time    0.0004
    --------------------------------------------
      LOOP:  cpu time    2.7306: real time    2.7342

 eigenvalue-minimisations  :  9603
 total energy-change (2. order) : 0.2196111E+01  (-0.5102541E-01)
 number of electron      79.9999847 magnetization 
 augmentation part       24.9277162 magnetization 

 DIPCOR: dipole corrections for dipol
 direction  3 min pos   164,
 dipolmoment           0.000000      0.000000      0.037560 electrons x Angstroem
 Tr[quadrupol]      -259.910200

 energy correction for charged system         0.000000 eV
 dipol+quadrupol energy correction           -0.000367 eV
 added-field ion interaction          0.433700 eV  (added to PSCEN)


 Broyden mixing:
  rms(total) = 0.61543E+00    rms(broyden)= 0.61540E+00
  rms(prec ) = 0.72433E+00
  weight for this iteration     100.00

 eigenvalues of (default mixing * dielectric matrix)
  average eigenvalue GAMMA=   0.7537
  2.0340  1.0833  0.7237  0.2941  0.2941  0.0934

 Free energy of the ion-electron system (eV)
  ---------------------------------------------------
  alpha Z        PSCENC =       175.46438504
  Ewald energy   TEWEN  =     29944.76857929
  -Hartree energ DENC   =    -35988.16900894
  -exchange      EXHF   =         0.00000000
  -V(xc)+E(xc)   XCENC  =        23.48385596
  PAW double counting   =      6999.96734710    -6795.73793206
  entropy T*S    EENTRO =        -0.00867500
  eigenvalues    EBANDS =      -239.19402306
  atomic energy  EATOM  =      5832.89561447
  Solvation  Ediel_sol  =         0.00000000
  ---------------------------------------------------
  free energy    TOTEN  =       -46.52985720 eV

  energy without entropy =      -46.52118220  energy(sigma->0) =      -46.52696553


--------------------------------------------------------------------------------------------------------




--------------------------------------- Iteration      1(  12)  ---------------------------------------


    POTLOK:  cpu time    0.0047: real time    0.0047
    SETDIJ:  cpu time    0.0020: real time    0.0020
    EDDIAG:  cpu time    0.7922: real time    0.7930
  RMM-DIIS:  cpu time    1.7491: real time    1.7507
    ORTHCH:  cpu time    0.1892: real time    0.1892
       DOS:  cpu time    0.0025: real time    0.0025
    CHARGE:  cpu time    0.0685: real time    0.0685
    MIXING:  cpu time    0.0004: real time    0.0004
    --------------------------------------------
      LOOP:  cpu time    2.8088: real time    2.8111

 eigenvalue-minimisations  :  9673
 total energy-change (2. order) : 0.2554335E+00  (-0.4859772E-01)
 number of electron      79.9999847 magnetization 
 augmentation part       24.9310730 magnetization 

 DIPCOR: dipole corrections for dipol
 direction  3 min pos   157,
 dipolmoment           0.000000      0.000000      0.033672 electrons x Angstroem
 Tr[quadrupol]      -259.634567

 energy correction for charged system         0.000000 eV
 dipol+quadrupol energy correction           -0.000295 eV
 added-field ion interaction         -0.585076 eV  (added to PSCEN)


 Broyden mixing:
  rms(total) = 0.45159E+00    rms(broyden)= 0.45154E+00
  rms(prec ) = 0.64812E+00
  weight for this iteration     100.00

 eigenvalues of (default mixing * dielectric matrix)
  average eigenvalue GAMMA=   0.7912
  2.2366  1.2531  0.6994  0.6994  0.2784  0.2784  0.0931

 Free energy of the ion-electron system (eV)
  ---------------------------------------------------
  alpha Z        PSCENC =       174.44568096
  Ewald energy   TEWEN  =     29944.76857929
  -Hartree energ DENC   =    -35983.46218077
  -exchange      EXHF   =         0.00000000
  -V(xc)+E(xc)   XCENC  =        23.58893745
  PAW double counting   =      6958.16286727    -6753.23084071
  entropy T*S    EENTRO =        -0.00154000
  eigenvalues    EBANDS =      -243.44154164
  atomic energy  EATOM  =      5832.89561447
  Solvation  Ediel_sol  =         0.00000000
  ---------------------------------------------------
  free energy    TOTEN  =       -46.27442367 eV

  energy without entropy =      -46.27288368  energy(sigma->0) =      -46.27391034


--------------------------------------------------------------------------------------------------------




--------------------------------------- Iteration      1(  13)  ---------------------------------------


    POTLOK:  cpu time    0.0068: real time    0.0077
    SETDIJ:  cpu time    0.0020: real time    0.0020
    EDDIAG:  cpu time    0.7949: real time    0.7957
  RMM-DIIS:  cpu time    1.7324: real time    1.7339
    ORTHCH:  cpu time    0.1904: real time    0.1904
       DOS:  cpu time    0.0026: real time    0.0026
    CHARGE:  cpu time    0.0673: real time    0.0673
    MIXING:  cpu time    0.0005: real time    0.0005
    --------------------------------------------
      LOOP:  cpu time    2.7969: real time    2.8000

 eigenvalue-minimisations  :  9663
 total energy-change (2. order) : 0.1205181E+00  (-0.1476102E-01)
 number of electron      79.9999847 magnetization 
 augmentation part       24.9082438 magnetization 

 DIPCOR: dipole corrections for dipol
 direction  3 min pos   155,
 dipolmoment           0.000000      0.000000     -0.007026 electrons x Angstroem
 Tr[quadrupol]      -259.865880

 energy correction for charged system         0.000000 eV
 dipol+quadrupol energy correction           -0.000013 eV
 added-field ion interaction          0.180135 eV  (added to PSCEN)


 Broyden mixing:
  rms(total) = 0.28814E+00    rms(broyden)= 0.28809E+00
  rms(prec ) = 0.37406E+00
  weight for this iteration     100.00

 eigenvalues of (default mixing * dielectric matrix)
  average eigenvalue GAMMA=   0.7061
  2.2317  1.2493  0.7162  0.7162  0.2788  0.2788  0.0932  0.0847

 Free energy of the ion-electron system (eV)
  ---------------------------------------------------
  alpha Z        PSCENC =       175.21117423
  Ewald energy   TEWEN  =     29944.76857929
  -Hartree energ DENC   =    -35988.91322508
  -exchange      EXHF   =         0.00000000
  -V(xc)+E(xc)   XCENC  =        23.57042547
  PAW double counting   =      6981.90785461    -6777.18823046
  entropy T*S    EENTRO =        -0.00736868
  eigenvalues    EBANDS =      -238.39872943
  atomic energy  EATOM  =      5832.89561447
  Solvation  Ediel_sol  =         0.00000000
  ---------------------------------------------------
  free energy    TOTEN  =       -46.15390557 eV

  energy without entropy =      -46.14653689  energy(sigma->0) =      -46.15144935


--------------------------------------------------------------------------------------------------------




--------------------------------------- Iteration      1(  14)  ---------------------------------------


    POTLOK:  cpu time    0.0069: real time    0.0075
    SETDIJ:  cpu time    0.0020: real time    0.0020
    EDDIAG:  cpu time    0.8005: real time    0.8013
  RMM-DIIS:  cpu time    1.8787: real time    1.8802
    ORTHCH:  cpu time    0.1874: real time    0.1874
       DOS:  cpu time    0.0026: real time    0.0026
    CHARGE:  cpu time    0.0671: real time    0.0671
    MIXING:  cpu time    0.0005: real time    0.0005
    --------------------------------------------
      LOOP:  cpu time    2.9457: real time    2.9486

 eigenvalue-minimisations  : 10609
 total energy-change (2. order) : 0.7407807E-02  (-0.7542733E-03)
 number of electron      79.9999847 magnetization 
 augmentation part       24.9081333 magnetization 

 DIPCOR: dipole corrections for dipol
 direction  3 min pos   161,
 dipolmoment           0.000000      0.000000     -0.007292 electrons x Angstroem
 Tr[quadrupol]      -259.863480

 energy correction for charged system         0.000000 eV
 dipol+quadrupol energy correction           -0.000014 eV
 added-field ion interaction          0.006188 eV  (added to PSCEN)


 Broyden mixing:
  rms(total) = 0.27668E+00    rms(broyden)= 0.27668E+00
  rms(prec ) = 0.36219E+00
  weight for this iteration     100.00

 eigenvalues of (default mixing * dielectric matrix)
  average eigenvalue GAMMA=   0.8165
  2.1287  1.1358  1.1358  1.2270  0.5375  0.5375  0.2765  0.2765  0.0931

 Free energy of the ion-electron system (eV)
  ---------------------------------------------------
  alpha Z        PSCENC =       175.03722629
  Ewald energy   TEWEN  =     29944.76857929
  -Hartree energ DENC   =    -35988.98829231
  -exchange      EXHF   =         0.00000000
  -V(xc)+E(xc)   XCENC  =        23.57519383
  PAW double counting   =      6980.42602176    -6775.67752353
  entropy T*S    EENTRO =        -0.00711987
  eigenvalues    EBANDS =      -238.17619770
  atomic energy  EATOM  =      5832.89561447
  Solvation  Ediel_sol  =         0.00000000
  ---------------------------------------------------
  free energy    TOTEN  =       -46.14649777 eV

  energy without entropy =      -46.13937790  energy(sigma->0) =      -46.14412448


--------------------------------------------------------------------------------------------------------




--------------------------------------- Iteration      1(  15)  ---------------------------------------


    POTLOK:  cpu time    0.0047: real time    0.0047
    SETDIJ:  cpu time    0.0021: real time    0.0020
    EDDIAG:  cpu time    0.8032: real time    0.8040
  RMM-DIIS:  cpu time    1.7534: real time    1.7547
    ORTHCH:  cpu time    0.1870: real time    0.1873
       DOS:  cpu time    0.0025: real time    0.0025
    CHARGE:  cpu time    0.0672: real time    0.0672
    MIXING:  cpu time    0.0006: real time    0.0006
    --------------------------------------------
      LOOP:  cpu time    2.8207: real time    2.8229

 eigenvalue-minimisations  :  9673
 total energy-change (2. order) : 0.4911134E-01  (-0.1154798E-02)
 number of electron      79.9999847 magnetization 
 augmentation part       24.9017859 magnetization 

 DIPCOR: dipole corrections for dipol
 direction  3 min pos   163,
 dipolmoment           0.000000      0.000000     -0.003707 electrons x Angstroem
 Tr[quadrupol]      -259.866889

 energy correction for charged system         0.000000 eV
 dipol+quadrupol energy correction           -0.000004 eV
 added-field ion interaction         -0.027490 eV  (added to PSCEN)


 Broyden mixing:
  rms(total) = 0.15103E+00    rms(broyden)= 0.15102E+00
  rms(prec ) = 0.19438E+00
  weight for this iteration     100.00

 eigenvalues of (default mixing * dielectric matrix)
  average eigenvalue GAMMA=   0.8501
  2.0893  1.5114  1.5114  1.0686  0.6114  0.6114  0.4521  0.2760  0.2760  0.0931

 Free energy of the ion-electron system (eV)
  ---------------------------------------------------
  alpha Z        PSCENC =       175.00355882
  Ewald energy   TEWEN  =     29944.76857929
  -Hartree energ DENC   =    -35990.14716414
  -exchange      EXHF   =         0.00000000
  -V(xc)+E(xc)   XCENC  =        23.61782106
  PAW double counting   =      6968.68015393    -6763.63323544
  entropy T*S    EENTRO =        -0.00620699
  eigenvalues    EBANDS =      -237.27650742
  atomic energy  EATOM  =      5832.89561447
  Solvation  Ediel_sol  =         0.00000000
  ---------------------------------------------------
  free energy    TOTEN  =       -46.09738642 eV

  energy without entropy =      -46.09117943  energy(sigma->0) =      -46.09531742


--------------------------------------------------------------------------------------------------------




--------------------------------------- Iteration      1(  16)  ---------------------------------------


    POTLOK:  cpu time    0.0047: real time    0.0047
    SETDIJ:  cpu time    0.0020: real time    0.0020
    EDDIAG:  cpu time    0.7977: real time    0.7989
  RMM-DIIS:  cpu time    1.7668: real time    1.7676
    ORTHCH:  cpu time    0.1847: real time    0.1854
       DOS:  cpu time    0.0025: real time    0.0025
    CHARGE:  cpu time    0.0670: real time    0.0672
    MIXING:  cpu time    0.0007: real time    0.0007
    --------------------------------------------
      LOOP:  cpu time    2.8261: real time    2.8289

 eigenvalue-minimisations  :  9687
 total energy-change (2. order) : 0.1367846E-01  (-0.8944870E-03)
 number of electron      79.9999847 magnetization 
 augmentation part       24.8970036 magnetization 

 DIPCOR: dipole corrections for dipol
 direction  3 min pos   164,
 dipolmoment           0.000000      0.000000     -0.002140 electrons x Angstroem
 Tr[quadrupol]      -259.886972

 energy correction for charged system         0.000000 eV
 dipol+quadrupol energy correction           -0.000001 eV
 added-field ion interaction         -0.024716 eV  (added to PSCEN)


 Broyden mixing:
  rms(total) = 0.88555E-01    rms(broyden)= 0.88549E-01
  rms(prec ) = 0.10997E+00
  weight for this iteration     100.00

 eigenvalues of (default mixing * dielectric matrix)
  average eigenvalue GAMMA=   0.8345
  1.9671  1.8172  1.8172  0.8435  0.6593  0.6593  0.5219  0.0931  0.2759  0.2759
  0.2493

 Free energy of the ion-electron system (eV)
  ---------------------------------------------------
  alpha Z        PSCENC =       175.00633578
  Ewald energy   TEWEN  =     29944.76857929
  -Hartree energ DENC   =    -35991.39269759
  -exchange      EXHF   =         0.00000000
  -V(xc)+E(xc)   XCENC  =        23.64575301
  PAW double counting   =      6965.32685519    -6760.12236386
  entropy T*S    EENTRO =        -0.00556888
  eigenvalues    EBANDS =      -236.20621537
  atomic energy  EATOM  =      5832.89561447
  Solvation  Ediel_sol  =         0.00000000
  ---------------------------------------------------
  free energy    TOTEN  =       -46.08370797 eV

  energy without entropy =      -46.07813908  energy(sigma->0) =      -46.08185167


--------------------------------------------------------------------------------------------------------




--------------------------------------- Iteration      1(  17)  ---------------------------------------


    POTLOK:  cpu time    0.0046: real time    0.0046
    SETDIJ:  cpu time    0.0020: real time    0.0020
    EDDIAG:  cpu time    0.7953: real time    0.7953
  RMM-DIIS:  cpu time    1.7802: real time    1.7816
    ORTHCH:  cpu time    0.1863: real time    0.1864
       DOS:  cpu time    0.0025: real time    0.0025
    CHARGE:  cpu time    0.0665: real time    0.0671
    MIXING:  cpu time    0.0007: real time    0.0007
    --------------------------------------------
      LOOP:  cpu time    2.8381: real time    2.8402

 eigenvalue-minimisations  :  9767
 total energy-change (2. order) : 0.4476801E-02  (-0.3601621E-03)
 number of electron      79.9999847 magnetization 
 augmentation part       24.8942230 magnetization 

 DIPCOR: dipole corrections for dipol
 direction  3 min pos   164,
 dipolmoment           0.000000      0.000000     -0.001532 electrons x Angstroem
 Tr[quadrupol]      -259.903828

 energy correction for charged system         0.000000 eV
 dipol+quadrupol energy correction           -0.000001 eV
 added-field ion interaction         -0.017694 eV  (added to PSCEN)


 Broyden mixing:
  rms(total) = 0.52811E-01    rms(broyden)= 0.52807E-01
  rms(prec ) = 0.64367E-01
  weight for this iteration     100.00

 eigenvalues of (default mixing * dielectric matrix)
  average eigenvalue GAMMA=   0.8443
  1.9635  1.6677  1.6677  0.8814  0.8814  0.8661  0.6579  0.6579  0.0931  0.2761
  0.2761  0.2431

 Free energy of the ion-electron system (eV)
  ---------------------------------------------------
  alpha Z        PSCENC =       175.01335815
  Ewald energy   TEWEN  =     29944.76857929
  -Hartree energ DENC   =    -35992.08865334
  -exchange      EXHF   =         0.00000000
  -V(xc)+E(xc)   XCENC  =        23.66105153
  PAW double counting   =      6963.95845090    -6758.67584233
  entropy T*S    EENTRO =        -0.00513592
  eigenvalues    EBANDS =      -235.60665393
  atomic energy  EATOM  =      5832.89561447
  Solvation  Ediel_sol  =         0.00000000
  ---------------------------------------------------
  free energy    TOTEN  =       -46.07923117 eV

  energy without entropy =      -46.07409525  energy(sigma->0) =      -46.07751919


--------------------------------------------------------------------------------------------------------




--------------------------------------- Iteration      1(  18)  ---------------------------------------


    POTLOK:  cpu time    0.0047: real time    0.0047
    SETDIJ:  cpu time    0.0020: real time    0.0020
    EDDIAG:  cpu time    0.7964: real time    0.7965
  RMM-DIIS:  cpu time    1.8517: real time    1.8532
    ORTHCH:  cpu time    0.1867: real time    0.1868
       DOS:  cpu time    0.0025: real time    0.0025
    CHARGE:  cpu time    0.0668: real time    0.0668
    MIXING:  cpu time    0.0007: real time    0.0007
    --------------------------------------------
      LOOP:  cpu time    2.9114: real time    2.9132

 eigenvalue-minimisations  : 10049
 total energy-change (2. order) : 0.1447840E-02  (-0.8806753E-04)
 number of electron      79.9999847 magnetization 
 augmentation part       24.8932821 magnetization 

 DIPCOR: dipole corrections for dipol
 direction  3 min pos   158,
 dipolmoment           0.000000      0.000000     -0.000500 electrons x Angstroem
 Tr[quadrupol]      -259.908160

 energy correction for charged system         0.000000 eV
 dipol+quadrupol energy correction           -0.000000 eV
 added-field ion interaction          0.006616 eV  (added to PSCEN)


 Broyden mixing:
  rms(total) = 0.36364E-01    rms(broyden)= 0.36363E-01
  rms(prec ) = 0.49381E-01
  weight for this iteration     100.00

 eigenvalues of (default mixing * dielectric matrix)
  average eigenvalue GAMMA=   0.9055
  2.2541  1.7929  1.7929  1.0793  1.0793  0.9737  0.6870  0.6870  0.5370  0.0931
  0.2761  0.2761  0.2424

 Free energy of the ion-electron system (eV)
  ---------------------------------------------------
  alpha Z        PSCENC =       175.03766821
  Ewald energy   TEWEN  =     29944.76857929
  -Hartree energ DENC   =    -35992.20481929
  -exchange      EXHF   =         0.00000000
  -V(xc)+E(xc)   XCENC  =        23.66253602
  PAW double counting   =      6964.56375019    -6759.29021410
  entropy T*S    EENTRO =        -0.00505042
  eigenvalues    EBANDS =      -235.50584770
  atomic energy  EATOM  =      5832.89561447
  Solvation  Ediel_sol  =         0.00000000
  ---------------------------------------------------
  free energy    TOTEN  =       -46.07778333 eV

  energy without entropy =      -46.07273290  energy(sigma->0) =      -46.07609985


--------------------------------------------------------------------------------------------------------




--------------------------------------- Iteration      1(  19)  ---------------------------------------


    POTLOK:  cpu time    0.0049: real time    0.0053
    SETDIJ:  cpu time    0.0020: real time    0.0020
[...]

 DIPCOR: dipole corrections for dipol
 direction  3 min pos   160,
 dipolmoment           0.000000      0.000000     -0.000339 electrons x Angstroem
 Tr[quadrupol]      -260.005631

 energy correction for charged system         0.000000 eV
 dipol+quadrupol energy correction           -0.000000 eV
 added-field ion interaction          0.001504 eV  (added to PSCEN)


 eigenvalues of (default mixing * dielectric matrix)
  average eigenvalue GAMMA=   0.0241
  0.0241

  free energy =  -0.460833916579E+02  energy without entropy=  -0.460795651747E+02


--------------------------------------------------------------------------------------------------------




--------------------------------------- Iteration      8(   3)  ---------------------------------------


    POTLOK:  cpu time    0.0046: real time    0.0046
    SETDIJ:  cpu time    0.0020: real time    0.0020
    EDDIAG:  cpu time    0.7949: real time    0.7958
  RMM-DIIS:  cpu time    1.2994: real time    1.3001
    ORTHCH:  cpu time    0.1863: real time    0.1875
       DOS:  cpu time    0.0025: real time    0.0025
    CHARGE:  cpu time    0.0673: real time    0.0673
    MIXING:  cpu time    0.0003: real time    0.0003
    --------------------------------------------
      LOOP:  cpu time    2.3573: real time    2.3601

 eigenvalue-minimisations  :  6499
 total energy-change (2. order) : 0.4185436E-04  (-0.3567517E-06)
 number of electron      79.9999860 magnetization 
 augmentation part       24.8861490 magnetization 

 DIPCOR: dipole corrections for dipol
 direction  3 min pos   160,
 dipolmoment           0.000000      0.000000      0.000108 electrons x Angstroem
 Tr[quadrupol]      -260.005340

 energy correction for charged system         0.000000 eV
 dipol+quadrupol energy correction           -0.000000 eV
 added-field ion interaction         -0.000479 eV  (added to PSCEN)


 eigenvalues of (default mixing * dielectric matrix)
  average eigenvalue GAMMA=   0.1858
  0.3039  0.0677

  free energy =  -0.460833498035E+02  energy without entropy=  -0.460795262267E+02


--------------------------------------------------------------------------------------------------------




--------------------------------------- Iteration      8(   4)  ---------------------------------------


    POTLOK:  cpu time    0.0046: real time    0.0046
    SETDIJ:  cpu time    0.0020: real time    0.0020
    EDDIAG:  cpu time    0.7900: real time    0.7907
  RMM-DIIS:  cpu time    1.1370: real time    1.1379
    ORTHCH:  cpu time    0.1870: real time    0.1871
       DOS:  cpu time    0.0026: real time    0.0026
    --------------------------------------------
      LOOP:  cpu time    2.1232: real time    2.1249

 eigenvalue-minimisations  :  5278
 total energy-change (2. order) :-0.6711698E-06  (-0.1589943E-06)
 number of electron      79.9999860 magnetization 
 augmentation part       24.8861490 magnetization 

 DIPCOR: dipole corrections for dipol
 direction  3 min pos   160,
 dipolmoment           0.000000      0.000000      0.000075 electrons x Angstroem
 Tr[quadrupol]      -260.004649

 energy correction for charged system         0.000000 eV
 dipol+quadrupol energy correction           -0.000000 eV
 added-field ion interaction         -0.000334 eV  (added to PSCEN)


  free energy =  -0.460833504747E+02  energy without entropy=  -0.460795444241E+02


--------------------------------------------------------------------------------------------------------




------------------------ aborting loop because EDIFF is reached ----------------------------------------


    CHARGE:  cpu time    0.0675: real time    0.0675
    FORLOC:  cpu time    0.0004: real time    0.0004
    FORNL :  cpu time    0.6705: real time    0.6712
    STRESS:  cpu time    1.2928: real time    1.2935
    FORCOR:  cpu time    0.0043: real time    0.0043
    FORHAR:  cpu time    0.0012: real time    0.0012
    MIXING:  cpu time    0.0003: real time    0.0003
    OFIELD:  cpu time    0.0000: real time    0.0000

  FORCE on cell =-STRESS in cart. coord.  units (eV):
  Direction    XX          YY          ZZ          XY          YZ          ZX
  --------------------------------------------------------------------------------------
  Alpha Z   175.03105   175.03105   175.03105
  Ewald   34495.16765 34457.96366-38853.70503    -0.00000    -0.00000    -9.30939
  Hartree 35787.63301 35776.19995-35414.88091     0.00000    -0.00000    -2.96142
  E(xc)    -353.30913  -353.42834  -355.57628     0.00000     0.00000    -0.04481
  Local  -71715.48589-71671.38361 72811.71005     0.00000     0.00000    10.82167
  n-local    33.26055    28.41380    29.85720    -0.00000    -0.00000    -0.48257
  augment   417.26582   420.21143   427.75584     0.00000    -0.00000     0.60991
  Kinetic  1151.17518  1156.12735  1179.85499    -0.00000    -0.00000     1.25887
  Fock        0.00000     0.00000     0.00000     0.00000     0.00000     0.00000
  -------------------------------------------------------------------------------------
  Total      -9.26177   -10.86470     0.04693    -0.00000    -0.00000    -0.10775
  in kB     -42.69230   -50.08105     0.21631    -0.00000    -0.00000    -0.49667
  external pressure =      -30.85 kB  Pullay stress =        0.00 kB



--------------------------------------------------------------------------------------------------------



  FREE ENERGIE OF THE ION-ELECTRON SYSTEM (eV)
  ---------------------------------------------------
  free  energy   TOTEN  =       -46.08335047 eV

  energy  without entropy=      -46.07954442  energy(sigma->0) =      -46.08208179
 
 d Force = 0.1754118E-04[ 0.157E-04, 0.194E-04]  d Energy = 0.2130168E-04-0.376E-05
 d Force =-0.1205578E+01[-0.121E+01,-0.121E+01]  d Ewald  =-0.1205578E+01 0.109E-08


--------------------------------------------------------------------------------------------------------


    POTLOK:  cpu time    0.0065: real time    0.0065


--------------------------------------------------------------------------------------------------------


 stress matrix after NEB project (eV)
     -9.26177     -0.00000     -0.10775
     -0.00000    -10.86470     -0.00000
     -0.10775     -0.00000      0.04693
  FORCES: max atom, RMS     0.018000    0.012275
  FORCE total and by dimension    0.034719    0.018000
  Stress total and by dimension   14.277512   10.864697
 Quasi-Newton relaxation of ions (Broydens 2nd method)
  g(Force)  = 0.116E-04   g(Stress)= 0.000E+00

 retain information from N=  1 steps
 eigenvalues of (default step * inverse Hessian matrix)
  average eigenvalue of G=   4.7752
 eigenvalue spectrum of G is  4.7752


--------------------------------------------------------------------------------------------------------


    WAVPRE:  cpu time    0.0013: real time    0.0013
    FEWALD:  cpu time    0.0002: real time    0.0002
    ORTHCH:  cpu time    0.2882: real time    0.2882
     LOOP+:  cpu time   17.5093: real time   17.5251


--------------------------------------- Iteration      9(   1)  ---------------------------------------


    POTLOK:  cpu time    0.0053: real time    0.0053
    SETDIJ:  cpu time    0.0021: real time    0.0021
     EDDAV:  cpu time    6.8202: real time    6.8264
       DOS:  cpu time    0.0025: real time    0.0025
    CHARGE:  cpu time    0.0673: real time    0.0673
    MIXING:  cpu time    0.0003: real time    0.0002
    --------------------------------------------
      LOOP:  cpu time    6.8977: real time    6.9039

 eigenvalue-minimisations  :  9600
 total energy-change (2. order) :-0.2284883E-04  (-0.1985739E-02)
 number of electron      79.9999860 magnetization 
 augmentation part       24.8859527 magnetization 

 DIPCOR: dipole corrections for dipol
 direction  3 min pos   160,
 dipolmoment           0.000000      0.000000      0.000176 electrons x Angstroem
 Tr[quadrupol]      -260.004807

 energy correction for charged system         0.000000 eV
 dipol+quadrupol energy correction           -0.000000 eV
 added-field ion interaction         -0.000779 eV  (added to PSCEN)


  free energy =  -0.460833726523E+02  energy without entropy=  -0.460795997002E+02


--------------------------------------------------------------------------------------------------------




--------------------------------------- Iteration      9(   2)  ---------------------------------------


    POTLOK:  cpu time    0.0048: real time    0.0052
    SETDIJ:  cpu time    0.0020: real time    0.0020
    EDDIAG:  cpu time    0.7920: real time    0.7931
  RMM-DIIS:  cpu time    1.7723: real time    1.7738
    ORTHCH:  cpu time    0.1840: real time    0.1841
       DOS:  cpu time    0.0025: real time    0.0025
    CHARGE:  cpu time    0.0675: real time    0.0675
    MIXING:  cpu time    0.0003: real time    0.0003
    --------------------------------------------
      LOOP:  cpu time    2.8255: real time    2.8285

 eigenvalue-minimisations  :  9673
 total energy-change (2. order) :-0.1145136E-03  (-0.2606799E-04)
 number of electron      79.9999860 magnetization 
 augmentation part       24.8858632 magnetization 

 DIPCOR: dipole corrections for dipol
 direction  3 min pos   160,
 dipolmoment           0.000000      0.000000     -0.000709 electrons x Angstroem
 Tr[quadrupol]      -260.006078

 energy correction for charged system         0.000000 eV
 dipol+quadrupol energy correction           -0.000000 eV
 added-field ion interaction          0.003138 eV  (added to PSCEN)


 eigenvalues of (default mixing * dielectric matrix)
  average eigenvalue GAMMA=   0.0352
  0.0352

  free energy =  -0.460834871659E+02  energy without entropy=  -0.460796884578E+02


--------------------------------------------------------------------------------------------------------




--------------------------------------- Iteration      9(   3)  ---------------------------------------


    POTLOK:  cpu time    0.0047: real time    0.0047
    SETDIJ:  cpu time    0.0020: real time    0.0020
    EDDIAG:  cpu time    0.7946: real time    0.7954
  RMM-DIIS:  cpu time    1.8485: real time    1.8500
    ORTHCH:  cpu time    0.1865: real time    0.1866
       DOS:  cpu time    0.0025: real time    0.0025
    CHARGE:  cpu time    0.0677: real time    0.0677
    MIXING:  cpu time    0.0003: real time    0.0003
    --------------------------------------------
      LOOP:  cpu time    2.9070: real time    2.9092

 eigenvalue-minimisations  : 10222
 total energy-change (2. order) : 0.6569738E-04  (-0.1803580E-05)
 number of electron      79.9999860 magnetization 
 augmentation part       24.8858930 magnetization 

 DIPCOR: dipole corrections for dipol
 direction  3 min pos   160,
 dipolmoment           0.000000      0.000000     -0.000324 electrons x Angstroem
 Tr[quadrupol]      -260.005836

 energy correction for charged system         0.000000 eV
 dipol+quadrupol energy correction           -0.000000 eV
 added-field ion interaction          0.001432 eV  (added to PSCEN)


 eigenvalues of (default mixing * dielectric matrix)
  average eigenvalue GAMMA=   0.3659
  0.6659  0.0660

  free energy =  -0.460834214685E+02  energy without entropy=  -0.460796251297E+02


--------------------------------------------------------------------------------------------------------




--------------------------------------- Iteration      9(   4)  ---------------------------------------


    POTLOK:  cpu time    0.0047: real time    0.0047
    SETDIJ:  cpu time    0.0021: real time    0.0021
    EDDIAG:  cpu time    0.7905: real time    0.7916
  RMM-DIIS:  cpu time    1.6689: real time    1.6696
    ORTHCH:  cpu time    0.1884: real time    0.1891
       DOS:  cpu time    0.0025: real time    0.0025
    CHARGE:  cpu time    0.0670: real time    0.0672
    MIXING:  cpu time    0.0004: real time    0.0003
    --------------------------------------------
      LOOP:  cpu time    2.7244: real time    2.7272

 eigenvalue-minimisations  :  9612
 total energy-change (2. order) :-0.4210824E-05  (-0.2158714E-05)
 number of electron      79.9999860 magnetization 
 augmentation part       24.8861590 magnetization 

 DIPCOR: dipole corrections for dipol
 direction  3 min pos   160,
 dipolmoment           0.000000      0.000000     -0.000221 electrons x Angstroem
 Tr[quadrupol]      -260.003663

 energy correction for charged system         0.000000 eV
 dipol+quadrupol energy correction           -0.000000 eV
 added-field ion interaction          0.000978 eV  (added to PSCEN)


 eigenvalues of (default mixing * dielectric matrix)
  average eigenvalue GAMMA=   0.5223
  1.2465  0.0571  0.2634

  free energy =  -0.460834256793E+02  energy without entropy=  -0.460796731089E+02


--------------------------------------------------------------------------------------------------------




--------------------------------------- Iteration      9(   5)  ---------------------------------------


    POTLOK:  cpu time    0.0046: real time    0.0046
    SETDIJ:  cpu time    0.0021: real time    0.0021
    EDDIAG:  cpu time    0.7926: real time    0.7931
  RMM-DIIS:  cpu time    1.6767: real time    1.6776
    ORTHCH:  cpu time    0.1889: real time    0.1891
       DOS:  cpu time    0.0028: real time    0.0028
    CHARGE:  cpu time    0.0674: real time    0.0674
    MIXING:  cpu time    0.0004: real time    0.0004
    --------------------------------------------
      LOOP:  cpu time    2.7354: real time    2.7370

 eigenvalue-minimisations  :  9555
 total energy-change (2. order) : 0.2432971E-04  (-0.1255659E-05)
 number of electron      79.9999860 magnetization 
 augmentation part       24.8859990 magnetization 

 DIPCOR: dipole corrections for dipol
 direction  3 min pos   160,
 dipolmoment           0.000000      0.000000     -0.000025 electrons x Angstroem
 Tr[quadrupol]      -260.004876

 energy correction for charged system         0.000000 eV
 dipol+quadrupol energy correction           -0.000000 eV
 added-field ion interaction          0.000112 eV  (added to PSCEN)


 eigenvalues of (default mixing * dielectric matrix)
  average eigenvalue GAMMA=   0.7352
  2.0765  0.5855  0.0579  0.2208

  free energy =  -0.460834013496E+02  energy without entropy=  -0.460796035029E+02


--------------------------------------------------------------------------------------------------------




--------------------------------------- Iteration      9(   6)  ---------------------------------------


    POTLOK:  cpu time    0.0062: real time    0.0073
    SETDIJ:  cpu time    0.0021: real time    0.0021
    EDDIAG:  cpu time    0.7969: real time    0.7976
  RMM-DIIS:  cpu time    1.5968: real time    1.5982
    ORTHCH:  cpu time    0.1848: real time    0.1849
       DOS:  cpu time    0.0025: real time    0.0025
    --------------------------------------------
      LOOP:  cpu time    2.5892: real time    2.5926

 eigenvalue-minimisations  :  9030
 total energy-change (2. order) : 0.8113366E-06  (-0.8458446E-06)
 number of electron      79.9999860 magnetization 
 augmentation part       24.8859990 magnetization 

 DIPCOR: dipole corrections for dipol
 direction  3 min pos   160,
 dipolmoment           0.000000      0.000000     -0.000015 electrons x Angstroem
 Tr[quadrupol]      -260.003869

 energy correction for charged system         0.000000 eV
 dipol+quadrupol energy correction           -0.000000 eV
 added-field ion interaction          0.000067 eV  (added to PSCEN)


  free energy =  -0.460834005383E+02  energy without entropy=  -0.460796294471E+02


--------------------------------------------------------------------------------------------------------




------------------------ aborting loop because EDIFF is reached ----------------------------------------


    CHARGE:  cpu time    0.0673: real time    0.0674
    FORLOC:  cpu time    0.0004: real time    0.0004
    FORNL :  cpu time    0.6725: real time    0.6733
    STRESS:  cpu time    1.3130: real time    1.3138
    FORCOR:  cpu time    0.0043: real time    0.0043
    FORHAR:  cpu time    0.0015: real time    0.0015
    MIXING:  cpu time    0.0004: real time    0.0004
    OFIELD:  cpu time    0.0000: real time    0.0000

  FORCE on cell =-STRESS in cart. coord.  units (eV):
  Direction    XX          YY          ZZ          XY          YZ          ZX
  --------------------------------------------------------------------------------------
  Alpha Z   175.03105   175.03105   175.03105
  Ewald   34500.05684 34462.85469-38858.66712    -0.00000    -0.00000    -9.31528
  Hartree 35793.11223 35781.68083-35420.38684     0.00000     0.00000    -2.96312
  E(xc)    -353.31426  -353.43355  -355.58025    -0.00000    -0.00000    -0.04478
  Local  -71725.87979-71681.78374 72822.20628    -0.00000    -0.00000    10.82909
  n-local    33.28086    28.43660    29.90698     0.00000     0.00000    -0.48309
  augment   417.27124   420.21715   427.73944     0.00000    -0.00000     0.61003
  Kinetic  1151.19922  1156.15307  1179.83969     0.00000     0.00000     1.25882
  Fock        0.00000     0.00000     0.00000     0.00000     0.00000     0.00000
  -------------------------------------------------------------------------------------
  Total      -9.24261   -10.84391     0.08923    -0.00000    -0.00000    -0.10834
  in kB     -42.60400   -49.98523     0.41132    -0.00000    -0.00000    -0.49940
  external pressure =      -30.73 kB  Pullay stress =        0.00 kB



--------------------------------------------------------------------------------------------------------



  FREE ENERGIE OF THE ION-ELECTRON SYSTEM (eV)
  ---------------------------------------------------
  free  energy   TOTEN  =       -46.08340054 eV

  energy  without entropy=      -46.07962945  energy(sigma->0) =      -46.08214351
 
 d Force = 0.4030043E-04[ 0.204E-04, 0.602E-04]  d Energy = 0.5006361E-04-0.976E-05
 d Force =-0.4818127E+01[-0.482E+01,-0.482E+01]  d Ewald  =-0.4818127E+01 0.604E-07


--------------------------------------------------------------------------------------------------------


    POTLOK:  cpu time    0.0064: real time    0.0064


--------------------------------------------------------------------------------------------------------


 stress matrix after NEB project (eV)
     -9.24261     -0.00000     -0.10834
     -0.00000    -10.84391     -0.00000
     -0.10834     -0.00000      0.08923
  FORCES: max atom, RMS     0.007066    0.003920
  FORCE total and by dimension    0.011087    0.007066
  Stress total and by dimension   14.249478   10.843910
 Quasi-Newton relaxation of ions (Broydens 2nd method)
  g(Force)  = 0.119E-05   g(Stress)= 0.000E+00

 retain information from N=  1 steps
 eigenvalues of (default step * inverse Hessian matrix)
  average eigenvalue of G=   6.8664
 eigenvalue spectrum of G is  6.8664


--------------------------------------------------------------------------------------------------------


  
 reached required accuracy - stopping structural energy minimisation
     LOOP+:  cpu time   22.7494: real time   22.7702
    4ORBIT:  cpu time    0.0000: real time    0.0000

 total amount of memory used by VASP MPI-rank0    64757. kBytes
=======================================================================

   base      :      30000. kBytes
   nonl-proj :      23012. kBytes
   fftplans  :        578. kBytes
   grid      :        768. kBytes
   one-center:         31. kBytes
   wavefun   :      10368. kBytes
 
  
  
 General timing and accounting informations for this job:
 ========================================================
  
                  Total CPU time used (sec):      334.345
                            User time (sec):      253.934
                          System time (sec):       80.411
                         Elapsed time (sec):      334.724
  
                   Maximum memory used (kb):      165948.
                   Average memory used (kb):           0.
  
                          Minor page faults:       135353
                          Major page faults:            0
                 Voluntary context switches:     25896029
