       N       E                     dE             d eps       ncg     rms          rms(c)
DAV:   1     0.479394539010E+03    0.47939E+03   -0.31071E+04  9612   0.115E+03
DAV:   2    -0.233355532710E+02   -0.50273E+03   -0.48255E+03 12960   0.258E+02
DAV:   3    -0.488090146773E+02   -0.25473E+02   -0.24439E+02 11964   0.561E+01
DAV:   4    -0.494710414782E+02   -0.66203E+00   -0.65600E+00 12120   0.972E+00
DAV:   5    -0.494936491657E+02   -0.22608E-01   -0.22535E-01 13380   0.153E+00    0.293E+01
RMM:   6    -0.475061046664E+02    0.19875E+01   -0.79894E+00  9670   0.130E+01    0.202E+01
RMM:   7    -0.590524612676E+02   -0.11546E+02   -0.20422E+01  9694   0.147E+01    0.287E+01
RMM:   8    -0.479318598605E+02    0.11121E+02   -0.61591E+00  9644   0.880E+00    0.118E+01
RMM:   9    -0.553217715324E+02   -0.73899E+01   -0.40978E+00  9657   0.586E+00    0.220E+01
RMM:  10    -0.486303143655E+02    0.66915E+01   -0.41225E+00  9635   0.613E+00    0.129E+01
RMM:  11    -0.467938369647E+02    0.18365E+01   -0.58086E-01  9613   0.282E+00    0.659E+00
RMM:  12    -0.465381409942E+02    0.25570E+00   -0.31316E-01  9707   0.178E+00    0.369E+00
RMM:  13    -0.464728178464E+02    0.65323E-01   -0.16874E-01  9664   0.135E+00    0.267E+00
RMM:  14    -0.464422089102E+02    0.30609E-01   -0.14804E-02 10294   0.320E-01    0.188E+00
RMM:  15    -0.464117580035E+02    0.30451E-01   -0.11589E-02  9708   0.364E-01    0.510E-01
RMM:  16    -0.464107563947E+02    0.10016E-02   -0.30883E-03  9698   0.183E-01    0.462E-01
RMM:  17    -0.464103093643E+02    0.44703E-03   -0.10439E-03  9784   0.109E-01    0.414E-01
RMM:  18    -0.464093352975E+02    0.97407E-03   -0.32682E-04  9971   0.591E-02    0.285E-01
RMM:  19    -0.464086481796E+02    0.68712E-03   -0.20252E-04  9724   0.463E-02    0.175E-01
RMM:  20    -0.464083819109E+02    0.26627E-03   -0.13616E-04  9744   0.331E-02    0.945E-02
RMM:  21    -0.464083652133E+02    0.16698E-04   -0.52935E-05  9808   0.229E-02    0.739E-02
RMM:  22    -0.464083522729E+02    0.12940E-04   -0.17062E-05  9718   0.134E-02    0.616E-02
RMM:  23    -0.464083382734E+02    0.13999E-04   -0.19479E-05  9452   0.132E-02    0.412E-02
RMM:  24    -0.464083306854E+02    0.75880E-05   -0.40429E-06  6711   0.571E-03    0.208E-02
RMM:  25    -0.464083574572E+02   -0.26772E-04   -0.10791E-05  8549   0.852E-03    0.355E-02
RMM:  26    -0.464083653655E+02   -0.79083E-05   -0.15045E-06  5523   0.416E-03    0.245E-02
RMM:  27    -0.464083668587E+02   -0.14932E-05   -0.17642E-06  5624   0.399E-03    0.219E-03
RMM:  28    -0.464083772768E+02   -0.10418E-04   -0.78651E-07  5323   0.251E-03    0.511E-03
RMM:  29    -0.464083837505E+02   -0.64737E-05   -0.80877E-07  4728   0.205E-03    0.308E-03
RMM:  30    -0.464083869058E+02   -0.31553E-05   -0.36406E-07  4067   0.161E-03    0.105E-03
RMM:  31    -0.464083883165E+02   -0.14107E-05   -0.20094E-07  2995   0.136E-03    0.225E-03
RMM:  32    -0.464083889341E+02   -0.61760E-06   -0.89673E-08  2294   0.109E-03
   1 F= -.46408389E+02 E0= -.46404721E+02  d E =-.464084E+02
       N       E                     dE             d eps       ncg     rms          rms(c)
DAV:   1    -0.464089179520E+02   -0.52964E-03   -0.33295E-02 10080   0.675E-01    0.346E-02
RMM:   2    -0.464094253625E+02   -0.50741E-03   -0.42040E-04  9685   0.100E-01    0.225E-01
RMM:   3    -0.464090129480E+02    0.41241E-03   -0.37450E-05  9738   0.226E-02    0.964E-02
RMM:   4    -0.464089960539E+02    0.16894E-04   -0.26009E-05  9676   0.176E-02    0.807E-02
RMM:   5    -0.464089532256E+02    0.42828E-04   -0.22618E-05  9614   0.160E-02    0.366E-02
RMM:   6    -0.464089482052E+02    0.50204E-05   -0.64754E-06  8079   0.934E-03    0.145E-02
RMM:   7    -0.464089461956E+02    0.20096E-05   -0.19307E-06  5504   0.539E-03    0.319E-03
RMM:   8    -0.464089462486E+02   -0.52987E-07   -0.11643E-06  5079   0.384E-03
   2 F= -.46408946E+02 E0= -.46405285E+02  d E =-.557314E-03
       N       E                     dE             d eps       ncg     rms          rms(c)
DAV:   1    -0.464095490208E+02   -0.60283E-03   -0.96378E-01  9600   0.363E+00    0.188E-01
RMM:   2    -0.464216975291E+02   -0.12149E-01   -0.11943E-02  9680   0.542E-01    0.110E+00
RMM:   3    -0.464125224692E+02    0.91751E-02   -0.94716E-04  9784   0.114E-01    0.498E-01
RMM:   4    -0.464117195740E+02    0.80290E-03   -0.70597E-04  9691   0.917E-02    0.399E-01
RMM:   5    -0.464107111988E+02    0.10084E-02   -0.63347E-04  9677   0.848E-02    0.204E-01
RMM:   6    -0.464104932856E+02    0.21791E-03   -0.20622E-04  9701   0.526E-02    0.825E-02
RMM:   7    -0.464104169286E+02    0.76357E-04   -0.59618E-05  9698   0.275E-02    0.190E-02
RMM:   8    -0.464104112828E+02    0.56458E-05   -0.38907E-05  9664   0.207E-02    0.815E-03
RMM:   9    -0.464104125693E+02   -0.12864E-05   -0.55810E-06  7982   0.820E-03    0.528E-03
RMM:  10    -0.464104127879E+02   -0.21860E-06   -0.79091E-07  5149   0.386E-03
   3 F= -.46410413E+02 E0= -.46406784E+02  d E =-.146654E-02
       N       E                     dE             d eps       ncg     rms          rms(c)
DAV:   1    -0.464104286423E+02   -0.16073E-04   -0.21272E-03 10368   0.169E-01    0.703E-03
RMM:   2    -0.464104336206E+02   -0.49783E-05   -0.19105E-05  9191   0.232E-02    0.197E-02
RMM:   3    -0.464104307500E+02    0.28706E-05   -0.92340E-07  4966   0.438E-03    0.103E-02
RMM:   4    -0.464104314352E+02   -0.68523E-06   -0.81712E-07  4978   0.390E-03
   4 F= -.46410431E+02 E0= -.46406802E+02  d E =-.186474E-04
       N       E                     dE             d eps       ncg     rms          rms(c)
DAV:   1    -0.464104486298E+02   -0.17880E-04   -0.20791E-03  9648   0.170E-01    0.118E-02
RMM:   2    -0.464104802707E+02   -0.31641E-04   -0.33629E-05  9591   0.272E-02    0.520E-02
RMM:   3    -0.464104570775E+02    0.23193E-04   -0.88797E-06  8456   0.980E-03    0.266E-02
RMM:   4    -0.464104516508E+02    0.54267E-05   -0.33020E-06  6299   0.658E-03    0.130E-02
RMM:   5    -0.464104506467E+02    0.10040E-05   -0.69545E-07  4869   0.388E-03    0.428E-03
RMM:   6    -0.464104508374E+02   -0.19063E-06   -0.48124E-07  4865   0.299E-03
   5 F= -.46410451E+02 E0= -.46406823E+02  d E =-.194021E-04
       N       E                     dE             d eps       ncg     rms          rms(c)
DAV:   1    -0.464101761633E+02    0.27448E-03   -0.46517E-01  9600   0.254E+00    0.989E-02
RMM:   2    -0.464107567506E+02   -0.58059E-03   -0.48835E-03  9644   0.371E-01    0.114E-01
RMM:   3    -0.464115280567E+02   -0.77131E-03   -0.48774E-04  9846   0.807E-02    0.300E-01
RMM:   4    -0.464106260433E+02    0.90201E-03   -0.13450E-04  9655   0.429E-02    0.573E-02
RMM:   5    -0.464106199071E+02    0.61362E-05   -0.62633E-05  9685   0.288E-02    0.412E-02
RMM:   6    -0.464106242380E+02   -0.43310E-05   -0.46536E-05  9690   0.252E-02    0.422E-02
RMM:   7    -0.464106096383E+02    0.14600E-04   -0.11754E-05  9350   0.125E-02    0.231E-02
RMM:   8    -0.464106040773E+02    0.55609E-05   -0.21874E-06  5295   0.597E-03    0.308E-03
RMM:   9    -0.464106042591E+02   -0.18179E-06   -0.74363E-07  4973   0.355E-03
   6 F= -.46410604E+02 E0= -.46406982E+02  d E =-.153422E-03
       N       E                     dE             d eps       ncg     rms          rms(c)
DAV:   1    -0.464103179015E+02    0.28618E-03   -0.23735E-01  9600   0.181E+00    0.702E-02
RMM:   2    -0.464105801711E+02   -0.26227E-03   -0.24458E-03  9644   0.264E-01    0.651E-02
RMM:   3    -0.464111221265E+02   -0.54196E-03   -0.25441E-04  9825   0.575E-02    0.240E-01
RMM:   4    -0.464105351686E+02    0.58696E-03   -0.73963E-05  9647   0.314E-02    0.370E-02
RMM:   5    -0.464105406188E+02   -0.54501E-05   -0.39097E-05  9679   0.224E-02    0.351E-02
RMM:   6    -0.464105345548E+02    0.60639E-05   -0.22388E-05  9613   0.180E-02    0.238E-02
RMM:   7    -0.464105306527E+02    0.39021E-05   -0.46582E-06  7142   0.806E-03    0.157E-02
RMM:   8    -0.464105282596E+02    0.23931E-05   -0.12996E-06  5046   0.498E-03    0.315E-03
RMM:   9    -0.464105282989E+02   -0.39314E-07   -0.26769E-07  4921   0.219E-03
   7 F= -.46410528E+02 E0= -.46406902E+02  d E =0.759602E-04
       N       E                     dE             d eps       ncg     rms          rms(c)
DAV:   1    -0.464105379870E+02   -0.97274E-05   -0.67678E-04  9648   0.944E-02    0.385E-03
RMM:   2    -0.464105412253E+02   -0.32384E-05   -0.80300E-06  8061   0.143E-02    0.160E-02
RMM:   3    -0.464105387443E+02    0.24810E-05   -0.57202E-07  4822   0.364E-03    0.475E-03
RMM:   4    -0.464105388413E+02   -0.97020E-07   -0.29911E-07  4810   0.247E-03
   8 F= -.46410539E+02 E0= -.46406912E+02  d E =-.105424E-04
       N       E                     dE             d eps       ncg     rms          rms(c)
DAV:   1    -0.464105640185E+02   -0.25274E-04   -0.58671E-02  9600   0.879E-01    0.375E-02
RMM:   2    -0.464108756354E+02   -0.31162E-03   -0.73636E-04  9629   0.136E-01    0.159E-01
RMM:   3    -0.464106268746E+02    0.24876E-03   -0.59968E-05  9795   0.305E-02    0.321E-02
RMM:   4    -0.464106407836E+02   -0.13909E-04   -0.29043E-05  9622   0.185E-02    0.539E-02
RMM:   5    -0.464106233053E+02    0.17478E-04   -0.11016E-05  9514   0.125E-02    0.291E-02
RMM:   6    -0.464106307844E+02   -0.74791E-05   -0.13139E-05  9522   0.135E-02    0.294E-02
RMM:   7    -0.464106215272E+02    0.92572E-05   -0.37342E-06  6610   0.715E-03    0.120E-02
RMM:   8    -0.464106201045E+02    0.14227E-05   -0.10914E-06  5119   0.393E-03    0.290E-03
RMM:   9    -0.464106202585E+02   -0.15403E-06   -0.25917E-07  4928   0.207E-03
   9 F= -.46410620E+02 E0= -.46406991E+02  d E =-.814172E-04
       N       E                     dE             d eps       ncg     rms          rms(c)
DAV:   1    -0.464106309375E+02   -0.10833E-04   -0.33111E-02  9600   0.662E-01    0.280E-02
RMM:   2    -0.464108699271E+02   -0.23899E-03   -0.43623E-04  9613   0.103E-01    0.142E-01
RMM:   3    -0.464106651679E+02    0.20476E-03   -0.40083E-05  9696   0.244E-02    0.224E-02
RMM:   4    -0.464106726879E+02   -0.75199E-05   -0.16935E-05  9489   0.142E-02    0.375E-02
RMM:   5    -0.464106643233E+02    0.83646E-05   -0.52972E-06  7687   0.893E-03    0.202E-02
RMM:   6    -0.464106697731E+02   -0.54499E-05   -0.75394E-06  8821   0.103E-02    0.232E-02
RMM:   7    -0.464106640506E+02    0.57225E-05   -0.24836E-06  5665   0.610E-03    0.915E-03
RMM:   8    -0.464106633285E+02    0.72215E-06   -0.62189E-07  5052   0.304E-03
  10 F= -.46410663E+02 E0= -.46407032E+02  d E =-.430699E-04
       N       E                     dE             d eps       ncg     rms          rms(c)
DAV:   1    -0.464106717984E+02   -0.77478E-05   -0.42408E-03  9600   0.239E-01    0.101E-02
RMM:   2    -0.464107012810E+02   -0.29483E-04   -0.56280E-05  9590   0.372E-02    0.490E-02
RMM:   3    -0.464106759320E+02    0.25349E-04   -0.54607E-06  7675   0.907E-03    0.633E-03
RMM:   4    -0.464106770751E+02   -0.11431E-05   -0.19807E-06  5491   0.549E-03    0.112E-02
RMM:   5    -0.464106763394E+02    0.73574E-06   -0.56212E-07  4990   0.352E-03
  11 F= -.46410676E+02 E0= -.46407045E+02  d E =-.130109E-04
       N       E                     dE             d eps       ncg     rms          rms(c)
DAV:   1    -0.464106229915E+02    0.54084E-04   -0.98706E-02  9600   0.116E+00    0.472E-02
RMM:   2    -0.464108005869E+02   -0.17760E-03   -0.11115E-03  9627   0.173E-01    0.911E-02
RMM:   3    -0.464107977256E+02    0.28613E-05   -0.99561E-05  9909   0.385E-02    0.835E-02
RMM:   4    -0.464107485756E+02    0.49150E-04   -0.48221E-05  9618   0.233E-02    0.614E-02
RMM:   5    -0.464107194122E+02    0.29163E-04   -0.13088E-05  9612   0.141E-02    0.253E-02
RMM:   6    -0.464107207525E+02   -0.13403E-05   -0.16053E-05  9590   0.151E-02    0.190E-02
RMM:   7    -0.464107191862E+02    0.15663E-05   -0.16696E-06  5310   0.521E-03    0.116E-02
RMM:   8    -0.464107174961E+02    0.16901E-05   -0.77565E-07  5044   0.364E-03    0.252E-03
RMM:   9    -0.464107175911E+02   -0.94998E-07   -0.19868E-07  4854   0.185E-03
  12 F= -.46410718E+02 E0= -.46407085E+02  d E =-.412517E-04
