 vasp.5.4.4.18Apr17-6-g9f103f2a35 (build Nov 06 2023 00:46:14) complex          
  
 executed on             LinuxIFC date 2025.07.20  22:09:56
 running on   48 total cores
 distrk:  each k-point on   48 cores,    1 groups
 distr:  one band on NCORES_PER_BAND=   4 cores,   12 groups


--------------------------------------------------------------------------------------------------------


 INCAR:
 POTCAR:    PAW_PBE Pt 04Feb2005                  
 POTCAR:    PAW_PBE Pt 04Feb2005                  
  local pseudopotential read in
  partial core-charges read in
  partial kinetic energy density read in
  atomic valenz-charges read in
  non local Contribution for L=           2  read in
    real space projection operators read in
  non local Contribution for L=           2  read in
    real space projection operators read in
  non local Contribution for L=           0  read in
    real space projection operators read in
  non local Contribution for L=           0  read in
    real space projection operators read in
  non local Contribution for L=           1  read in
    real space projection operators read in
  non local Contribution for L=           1  read in
    real space projection operators read in
    PAW grid and wavefunctions read in
 
   number of l-projection  operators is LMAX  =           6
   number of lm-projection operators is LMMAX =          18
 
  PAW_PBE Pt 04Feb2005                  :
 energy of atom  1       EATOM= -729.1176
 kinetic energy error for atom=    0.0056 (will be added to EATOM!!)
 
 
 POSCAR: Pt                                      
  positions in cartesian coordinates
  No initial velocities read in
 exchange correlation table for  LEXCH =        8
   RHO(1)=    0.500       N(1)  =     2000
   RHO(2)=  100.500       N(2)  =     4000

 VTST: version 3.2, (02/03/18)

 CHAIN: initializing optimizer
 
 OPT: Using VASP QUASI-newton optimizer
 CHAIN: Read ICHAIN            0
 
 POSCAR: Pt                                      
  positions in cartesian coordinates
  No initial velocities read in
 


--------------------------------------------------------------------------------------------------------


 ion  position               nearest neighbor table
   1  0.000  0.000  0.000-   4 2.79   4 2.79   4 2.79   4 2.79   5 2.82   5 2.82   2 2.83
   2  0.667  0.000  0.093-   5 2.79   5 2.79   5 2.79   5 2.79   4 2.82   4 2.82   6 2.82   6 2.82
                             1 2.83   3 2.83
   3  0.333  0.000  0.186-   6 2.79   6 2.79   6 2.79   6 2.79   8 2.82   8 2.82   5 2.82   5 2.82
                             7 2.83   2 2.83
   4  0.500  0.500  0.000-   1 2.79   1 2.79   1 2.79   1 2.79   2 2.82   2 2.82   5 2.83
   5  0.167  0.500  0.093-   2 2.79   2 2.79   2 2.79   2 2.79   1 2.82   1 2.82   3 2.82   3 2.82
                             4 2.83   6 2.83
   6  0.833  0.500  0.186-   3 2.79   3 2.79   3 2.79   3 2.79   7 2.82   7 2.82   2 2.82   2 2.82
                             8 2.83   5 2.83
   7  0.000  0.000  0.278-   8 2.79   8 2.79   8 2.79   8 2.79   6 2.82   6 2.82   3 2.83
   8  0.500  0.500  0.278-   7 2.79   7 2.79   7 2.79   7 2.79   3 2.82   3 2.82   6 2.83
 

IMPORTANT INFORMATION: All symmetrisations will be switched off!
NOSYMM: (Re-)initialisation of all symmetry stuff for point group C_1.

 
 
 KPOINTS: K-Spacing Value to Generate K-Mesh: 0.02

Automatic generation of k-mesh.
Space group operators:
 irot       det(A)        alpha          n_x          n_y          n_z        tau_x        tau_y        tau_z
    1     1.000000     0.000001     1.000000     0.000000     0.000000     0.000000     0.000000     0.000000
 
 Subroutine IBZKPT returns following result:
 ===========================================
 
 Found    100 irreducible k-points:
 
 Following reciprocal coordinates:
            Coordinates               Weight
  0.000000  0.000000  0.000000      1.000000
  0.090909  0.000000  0.000000      2.000000
  0.181818  0.000000  0.000000      2.000000
  0.272727  0.000000  0.000000      2.000000
  0.363636  0.000000  0.000000      2.000000
  0.454545  0.000000  0.000000      2.000000
  0.000000  0.055556  0.000000      2.000000
  0.090909  0.055556  0.000000      2.000000
  0.181818  0.055556  0.000000      2.000000
  0.272727  0.055556  0.000000      2.000000
  0.363636  0.055556  0.000000      2.000000
  0.454545  0.055556  0.000000      2.000000
 -0.454545  0.055556  0.000000      2.000000
 -0.363636  0.055556  0.000000      2.000000
 -0.272727  0.055556  0.000000      2.000000
 -0.181818  0.055556  0.000000      2.000000
 -0.090909  0.055556  0.000000      2.000000
  0.000000  0.111111  0.000000      2.000000
  0.090909  0.111111  0.000000      2.000000
  0.181818  0.111111  0.000000      2.000000
  0.272727  0.111111  0.000000      2.000000
  0.363636  0.111111  0.000000      2.000000
  0.454545  0.111111  0.000000      2.000000
 -0.454545  0.111111  0.000000      2.000000
 -0.363636  0.111111  0.000000      2.000000
 -0.272727  0.111111  0.000000      2.000000
 -0.181818  0.111111  0.000000      2.000000
 -0.090909  0.111111  0.000000      2.000000
  0.000000  0.166667  0.000000      2.000000
  0.090909  0.166667  0.000000      2.000000
  0.181818  0.166667  0.000000      2.000000
  0.272727  0.166667  0.000000      2.000000
  0.363636  0.166667  0.000000      2.000000
  0.454545  0.166667  0.000000      2.000000
 -0.454545  0.166667  0.000000      2.000000
 -0.363636  0.166667  0.000000      2.000000
 -0.272727  0.166667  0.000000      2.000000
 -0.181818  0.166667  0.000000      2.000000
 -0.090909  0.166667  0.000000      2.000000
  0.000000  0.222222  0.000000      2.000000
  0.090909  0.222222  0.000000      2.000000
  0.181818  0.222222  0.000000      2.000000
  0.272727  0.222222  0.000000      2.000000
  0.363636  0.222222  0.000000      2.000000
  0.454545  0.222222  0.000000      2.000000
 -0.454545  0.222222  0.000000      2.000000
 -0.363636  0.222222  0.000000      2.000000
 -0.272727  0.222222  0.000000      2.000000
 -0.181818  0.222222  0.000000      2.000000
 -0.090909  0.222222  0.000000      2.000000
  0.000000  0.277778  0.000000      2.000000
  0.090909  0.277778  0.000000      2.000000
  0.181818  0.277778  0.000000      2.000000
  0.272727  0.277778  0.000000      2.000000
  0.363636  0.277778  0.000000      2.000000
  0.454545  0.277778  0.000000      2.000000
 -0.454545  0.277778  0.000000      2.000000
 -0.363636  0.277778  0.000000      2.000000
 -0.272727  0.277778  0.000000      2.000000
 -0.181818  0.277778  0.000000      2.000000
 -0.090909  0.277778  0.000000      2.000000
  0.000000  0.333333  0.000000      2.000000
  0.090909  0.333333  0.000000      2.000000
  0.181818  0.333333  0.000000      2.000000
  0.272727  0.333333  0.000000      2.000000
  0.363636  0.333333  0.000000      2.000000
  0.454545  0.333333  0.000000      2.000000
 -0.454545  0.333333  0.000000      2.000000
 -0.363636  0.333333  0.000000      2.000000
 -0.272727  0.333333  0.000000      2.000000
 -0.181818  0.333333  0.000000      2.000000
 -0.090909  0.333333  0.000000      2.000000
  0.000000  0.388889  0.000000      2.000000
  0.090909  0.388889  0.000000      2.000000
  0.181818  0.388889  0.000000      2.000000
  0.272727  0.388889  0.000000      2.000000
  0.363636  0.388889  0.000000      2.000000
  0.454545  0.388889  0.000000      2.000000
 -0.454545  0.388889  0.000000      2.000000
 -0.363636  0.388889  0.000000      2.000000
 -0.272727  0.388889  0.000000      2.000000
 -0.181818  0.388889  0.000000      2.000000
 -0.090909  0.388889  0.000000      2.000000
  0.000000  0.444444  0.000000      2.000000
  0.090909  0.444444  0.000000      2.000000
  0.181818  0.444444  0.000000      2.000000
  0.272727  0.444444  0.000000      2.000000
  0.363636  0.444444  0.000000      2.000000
  0.454545  0.444444  0.000000      2.000000
 -0.454545  0.444444  0.000000      2.000000
 -0.363636  0.444444  0.000000      2.000000
 -0.272727  0.444444  0.000000      2.000000
 -0.181818  0.444444  0.000000      2.000000
 -0.090909  0.444444  0.000000      2.000000
  0.000000  0.500000  0.000000      1.000000
  0.090909  0.500000  0.000000      2.000000
  0.181818  0.500000  0.000000      2.000000
  0.272727  0.500000  0.000000      2.000000
  0.363636  0.500000  0.000000      2.000000
  0.454545  0.500000  0.000000      2.000000
 
 Following cartesian coordinates:
            Coordinates               Weight
  0.000000  0.000000  0.000000      1.000000
  0.018710  0.000000  0.000000      2.000000
  0.037420  0.000000  0.000000      2.000000
  0.056129  0.000000  0.000000      2.000000
  0.074839  0.000000  0.000000      2.000000
  0.093549  0.000000  0.000000      2.000000
  0.000000  0.020208  0.000000      2.000000
  0.018710  0.020208  0.000000      2.000000
  0.037420  0.020208  0.000000      2.000000
  0.056129  0.020208  0.000000      2.000000
  0.074839  0.020208  0.000000      2.000000
  0.093549  0.020208  0.000000      2.000000
 -0.093549  0.020208  0.000000      2.000000
 -0.074839  0.020208  0.000000      2.000000
 -0.056129  0.020208  0.000000      2.000000
 -0.037420  0.020208  0.000000      2.000000
 -0.018710  0.020208  0.000000      2.000000
  0.000000  0.040416  0.000000      2.000000
  0.018710  0.040416  0.000000      2.000000
  0.037420  0.040416  0.000000      2.000000
  0.056129  0.040416  0.000000      2.000000
  0.074839  0.040416  0.000000      2.000000
  0.093549  0.040416  0.000000      2.000000
 -0.093549  0.040416  0.000000      2.000000
 -0.074839  0.040416  0.000000      2.000000
 -0.056129  0.040416  0.000000      2.000000
 -0.037420  0.040416  0.000000      2.000000
 -0.018710  0.040416  0.000000      2.000000
  0.000000  0.060624  0.000000      2.000000
  0.018710  0.060624  0.000000      2.000000
  0.037420  0.060624  0.000000      2.000000
  0.056129  0.060624  0.000000      2.000000
  0.074839  0.060624  0.000000      2.000000
  0.093549  0.060624  0.000000      2.000000
 -0.093549  0.060624  0.000000      2.000000
 -0.074839  0.060624  0.000000      2.000000
 -0.056129  0.060624  0.000000      2.000000
 -0.037420  0.060624  0.000000      2.000000
 -0.018710  0.060624  0.000000      2.000000
  0.000000  0.080832  0.000000      2.000000
  0.018710  0.080832  0.000000      2.000000
  0.037420  0.080832  0.000000      2.000000
  0.056129  0.080832  0.000000      2.000000
  0.074839  0.080832  0.000000      2.000000
  0.093549  0.080832  0.000000      2.000000
 -0.093549  0.080832  0.000000      2.000000
 -0.074839  0.080832  0.000000      2.000000
 -0.056129  0.080832  0.000000      2.000000
 -0.037420  0.080832  0.000000      2.000000
 -0.018710  0.080832  0.000000      2.000000
  0.000000  0.101040  0.000000      2.000000
  0.018710  0.101040  0.000000      2.000000
  0.037420  0.101040  0.000000      2.000000
  0.056129  0.101040  0.000000      2.000000
  0.074839  0.101040  0.000000      2.000000
  0.093549  0.101040  0.000000      2.000000
 -0.093549  0.101040  0.000000      2.000000
 -0.074839  0.101040  0.000000      2.000000
 -0.056129  0.101040  0.000000      2.000000
 -0.037420  0.101040  0.000000      2.000000
 -0.018710  0.101040  0.000000      2.000000
  0.000000  0.121248  0.000000      2.000000
  0.018710  0.121248  0.000000      2.000000
  0.037420  0.121248  0.000000      2.000000
  0.056129  0.121248  0.000000      2.000000
  0.074839  0.121248  0.000000      2.000000
  0.093549  0.121248  0.000000      2.000000
 -0.093549  0.121248  0.000000      2.000000
 -0.074839  0.121248  0.000000      2.000000
 -0.056129  0.121248  0.000000      2.000000
 -0.037420  0.121248  0.000000      2.000000
 -0.018710  0.121248  0.000000      2.000000
  0.000000  0.141456  0.000000      2.000000
  0.018710  0.141456  0.000000      2.000000
  0.037420  0.141456  0.000000      2.000000
  0.056129  0.141456  0.000000      2.000000
  0.074839  0.141456  0.000000      2.000000
  0.093549  0.141456  0.000000      2.000000
 -0.093549  0.141456  0.000000      2.000000
 -0.074839  0.141456  0.000000      2.000000
 -0.056129  0.141456  0.000000      2.000000
 -0.037420  0.141456  0.000000      2.000000
 -0.018710  0.141456  0.000000      2.000000
  0.000000  0.161664  0.000000      2.000000
  0.018710  0.161664  0.000000      2.000000
  0.037420  0.161664  0.000000      2.000000
  0.056129  0.161664  0.000000      2.000000
  0.074839  0.161664  0.000000      2.000000
  0.093549  0.161664  0.000000      2.000000
 -0.093549  0.161664  0.000000      2.000000
 -0.074839  0.161664  0.000000      2.000000
 -0.056129  0.161664  0.000000      2.000000
 -0.037420  0.161664  0.000000      2.000000
 -0.018710  0.161664  0.000000      2.000000
  0.000000  0.181872  0.000000      1.000000
  0.018710  0.181872  0.000000      2.000000
  0.037420  0.181872  0.000000      2.000000
  0.056129  0.181872  0.000000      2.000000
  0.074839  0.181872  0.000000      2.000000
  0.093549  0.181872  0.000000      2.000000
 


--------------------------------------------------------------------------------------------------------




 Dimension of arrays:
   k-points           NKPTS =    100   k-points in BZ     NKDIM =    100   number of bands    NBANDS=     48
   number of dos      NEDOS =    301   number of ions     NIONS =      8
   non local maximal  LDIM  =      6   non local SUM 2l+1 LMDIM =     18
   total plane-waves  NPLWV =  42336
   max r-space proj   IRMAX =      1   max aug-charges    IRDMAX=   7877
   dimension x,y,z NGX =    24 NGY =   14 NGZ =  126
   dimension x,y,z NGXF=    48 NGYF=   28 NGZF=  252
   support grid    NGXF=    48 NGYF=   28 NGZF=  252
   ions per type =               8
   NGX,Y,Z   is equivalent  to a cutoff of   8.21,  8.47,  8.38 a.u.
   NGXF,Y,Z  is equivalent  to a cutoff of  16.42, 16.93, 16.76 a.u.

 SYSTEM =  Pt111                                   
 POSCAR =  Pt                                      

 Startparameter for this run:
   NWRITE =      0    write-flag & timer
   PREC   = normal    normal or accurate (medium, high low for compatibility)
   ISTART =      0    job   : 0-new  1-cont  2-samecut
   ICHARG =      2    charge: 1-file 2-atom 10-const
   ISPIN  =      1    spin polarized calculation?
   LNONCOLLINEAR =      F non collinear calculations
   LSORBIT =      F    spin-orbit coupling
   INIWAV =      1    electr: 0-lowe 1-rand  2-diag
   LASPH  =      F    aspherical Exc in radial PAW
   METAGGA=      F    non-selfconsistent MetaGGA calc.

 Electronic Relaxation 1
   ENCUT  =  400.0 eV  29.40 Ry    5.42 a.u.   7.92  4.48 40.77*2*pi/ulx,y,z
   ENINI  =  400.0     initial cutoff
   ENAUG  =  359.0 eV  augmentation charge cutoff
   NELM   =     60;   NELMIN=  2; NELMDL= -5     # of ELM steps 
   EDIFF  = 0.1E-05   stopping-criterion for ELM
   LREAL  =      F    real-space projection
   NLSPLINE    = F    spline interpolate recip. space projectors
   LCOMPAT=      F    compatible to vasp.4.4
   GGA_COMPAT  = T    GGA compatible to vasp.4.4-vasp.4.6
   LMAXPAW     = -100 max onsite density
   LMAXMIX     =    2 max onsite mixed and CHGCAR
   VOSKOWN=      0    Vosko Wilk Nusair interpolation
   ROPT   =    0.00000
 Ionic relaxation
   EDIFFG = -.1E-01   stopping-criterion for IOM
   NSW    =     50    number of steps for IOM
   NBLOCK =      1;   KBLOCK =     50    inner block; outer block 
   IBRION =      1    ionic relax: 0-MD 1-quasi-New 2-CG
   NFREE  =      0    steps in history (QN), initial steepest desc. (CG)
   ISIF   =      2    stress and relaxation
   IWAVPR =     11    prediction:  0-non 1-charg 2-wave 3-comb
   ISYM   =      0    0-nonsym 1-usesym 2-fastsym
   LCORR  =      T    Harris-Foulkes like correction to forces

   POTIM  = 0.1000    time-step for ionic-motion
   TEIN   =    0.0    initial temperature
   TEBEG  =    0.0;   TEEND  =   0.0 temperature during run
   SMASS  =  -3.00    Nose mass-parameter (am)
   estimated Nose-frequenzy (Omega)   =  0.10E-29 period in steps =****** mass=  -0.540E-27a.u.
   SCALEE = 1.0000    scale energy and forces
   NPACO  =    256;   APACO  = 16.0  distance and # of slots for P.C.
   PSTRESS=    0.0 pullay stress

  Mass of Ions in am
   POMASS = 195.08
  Ionic Valenz
   ZVAL   =  10.00
  Atomic Wigner-Seitz radii
   RWIGS  =  -1.00
  virtual crystal weights 
   VCA    =   1.00
   NELECT =      80.0000    total number of electrons
   NUPDOWN=      -1.0000    fix difference up-down

 DOS related values:
   EMIN   =  10.00;   EMAX   =-10.00  energy-range for DOS
   EFERMI =   0.00
   ISMEAR =     1;   SIGMA  =   0.10  broadening in eV -4-tet -1-fermi 0-gaus

 Electronic relaxation 2 (details)
   IALGO  =     68    algorithm
   LDIAG  =      T    sub-space diagonalisation (order eigenvalues)
   LSUBROT=      F    optimize rotation matrix (better conditioning)
   TURBO    =      0    0=normal 1=particle mesh
   IRESTART =      0    0=no restart 2=restart with 2 vectors
   NREBOOT  =      0    no. of reboots
   NMIN     =      0    reboot dimension
   EREF     =   0.00    reference energy to select bands
   IMIX   =      4    mixing-type and parameters
     AMIX     =   0.40;   BMIX     =  1.00
     AMIX_MAG =   1.60;   BMIX_MAG =  1.00
     AMIN     =   0.10
     WC   =   100.;   INIMIX=   1;  MIXPRE=   1;  MAXMIX= -45

 Intra band minimization:
   WEIMIN = 0.0010     energy-eigenvalue tresh-hold
   EBREAK =  0.52E-08  absolut break condition
   DEPER  =   0.30     relativ break condition  

   TIME   =   0.40     timestep for ELM

  volume/ion in A,a.u.               =      41.74       281.70
  Fermi-wavevector in a.u.,A,eV,Ry     =   1.016743  1.921366 14.065250  1.033767
  Thomas-Fermi vector in A             =   2.150104
 
 Write flags
   LWAVE        =      F    write WAVECAR
   LDOWNSAMPLE  =      F    k-point downsampling of WAVECAR
   LCHARG       =      F    write CHGCAR
   LVTOT        =      F    write LOCPOT, total local potential
   LVHAR        =      F    write LOCPOT, Hartree potential only
   LELF         =      F    write electronic localiz. function (ELF)
   LORBIT       =      0    0 simple, 1 ext, 2 COOP (PROOUT), +10 PAW based schemes


 Dipole corrections
   LMONO  =      F    monopole corrections only (constant potential shift)
   LDIPOL =      T    correct potential (dipole corrections)
   IDIPOL =      3    1-x, 2-y, 3-z, 4-all directions 
   EPSILON=  1.0000000 bulk dielectric constant

 Exchange correlation treatment:
   GGA     =    --    GGA type
   LEXCH   =     8    internal setting for exchange type
   VOSKOWN=      0    Vosko Wilk Nusair interpolation
   LHFCALC =     F    Hartree Fock is set to
   LHFONE  =     F    Hartree Fock one center treatment
   AEXX    =    0.0000 exact exchange contribution

 Linear response parameters
   LEPSILON=     F    determine dielectric tensor
   LRPA    =     F    only Hartree local field effects (RPA)
   LNABLA  =     F    use nabla operator in PAW spheres
   LVEL    =     F    velocity operator in full k-point grid
   LINTERFAST=   F  fast interpolation
   KINTER  =     0    interpolate to denser k-point grid
   CSHIFT  =0.1000    complex shift for real part using Kramers Kronig
   OMEGAMAX=  -1.0    maximum frequency
   DEG_THRESHOLD= 0.2000000E-02 threshold for treating states as degnerate
   RTIME   =   -0.100 relaxation time in fs
  (WPLASMAI=    0.000 imaginary part of plasma frequency in eV, 0.658/RTIME)
   DFIELD  = 0.0000000 0.0000000 0.0000000 field for delta impulse in time
 
 Orbital magnetization related:
   ORBITALMAG=     F  switch on orbital magnetization
   LCHIMAG   =     F  perturbation theory with respect to B field
   DQ        =  0.001000  dq finite difference perturbation B field
   LLRAUG    =     F  two centre corrections for induced B field



--------------------------------------------------------------------------------------------------------


 quasi-Newton-method for relaxation of ions
   using selective dynamics as specified on POSCAR
   WARNING: If single coordinates had been selected the selection of coordinates
            is made according to the corresponding   d i r e c t   coordinates!
            Don't support selection of single cartesian coordinates -- sorry ...
  !
 charge density and potential will be updated during run
 non-spin polarized calculation
 RMM-DIIS sequential band-by-band and
  variant of blocked Davidson during initial phase
 perform sub-space diagonalisation
    before iterative eigenvector-optimisation
 modified Broyden-mixing scheme, WC =      100.0
 initial mixing is a Kerker type mixing with AMIX =  0.4000 and BMIX =      1.0000
 Hartree-type preconditioning will be used
 using additional bands            8
 reciprocal scheme for non local part
 use partial core corrections
 calculate Harris-corrections to forces 
   (improved forces if not selfconsistent)
 use gradient corrections 
 use of overlap-Matrix (Vanderbilt PP)
 Methfessel and Paxton  Order N= 1 SIGMA  =   0.10


--------------------------------------------------------------------------------------------------------


  energy-cutoff  :      400.00
  volume of cell :      333.95
      direct lattice vectors                 reciprocal lattice vectors
     4.858896010  0.000000000  0.000000000     0.205808068  0.000000000  0.000000000
     0.000000000  2.749179222  0.000000000     0.000000000  0.363744929  0.000000000
     0.000000000  0.000000000 25.000000000     0.000000000  0.000000000  0.040000000

  length of vectors
     4.858896010  2.749179222 25.000000000     0.205808068  0.363744929  0.040000000


 
 k-points in units of 2pi/SCALE and weight: K-Spacing Value to Generate K-Mesh: 0.02
   0.00000000  0.00000000  0.00000000       0.005
   0.01870982  0.00000000  0.00000000       0.010
   0.03741965  0.00000000  0.00000000       0.010
   0.05612947  0.00000000  0.00000000       0.010
   0.07483930  0.00000000  0.00000000       0.010
   0.09354912  0.00000000  0.00000000       0.010
   0.00000000  0.02020805  0.00000000       0.010
   0.01870982  0.02020805  0.00000000       0.010
   0.03741965  0.02020805  0.00000000       0.010
   0.05612947  0.02020805  0.00000000       0.010
   0.07483930  0.02020805  0.00000000       0.010
   0.09354912  0.02020805  0.00000000       0.010
  -0.09354912  0.02020805  0.00000000       0.010
  -0.07483930  0.02020805  0.00000000       0.010
  -0.05612947  0.02020805  0.00000000       0.010
  -0.03741965  0.02020805  0.00000000       0.010
  -0.01870982  0.02020805  0.00000000       0.010
   0.00000000  0.04041610  0.00000000       0.010
   0.01870982  0.04041610  0.00000000       0.010
   0.03741965  0.04041610  0.00000000       0.010
   0.05612947  0.04041610  0.00000000       0.010
   0.07483930  0.04041610  0.00000000       0.010
   0.09354912  0.04041610  0.00000000       0.010
  -0.09354912  0.04041610  0.00000000       0.010
  -0.07483930  0.04041610  0.00000000       0.010
  -0.05612947  0.04041610  0.00000000       0.010
  -0.03741965  0.04041610  0.00000000       0.010
  -0.01870982  0.04041610  0.00000000       0.010
   0.00000000  0.06062415  0.00000000       0.010
   0.01870982  0.06062415  0.00000000       0.010
   0.03741965  0.06062415  0.00000000       0.010
   0.05612947  0.06062415  0.00000000       0.010
   0.07483930  0.06062415  0.00000000       0.010
   0.09354912  0.06062415  0.00000000       0.010
  -0.09354912  0.06062415  0.00000000       0.010
  -0.07483930  0.06062415  0.00000000       0.010
  -0.05612947  0.06062415  0.00000000       0.010
  -0.03741965  0.06062415  0.00000000       0.010
  -0.01870982  0.06062415  0.00000000       0.010
   0.00000000  0.08083221  0.00000000       0.010
   0.01870982  0.08083221  0.00000000       0.010
   0.03741965  0.08083221  0.00000000       0.010
   0.05612947  0.08083221  0.00000000       0.010
   0.07483930  0.08083221  0.00000000       0.010
   0.09354912  0.08083221  0.00000000       0.010
  -0.09354912  0.08083221  0.00000000       0.010
  -0.07483930  0.08083221  0.00000000       0.010
  -0.05612947  0.08083221  0.00000000       0.010
  -0.03741965  0.08083221  0.00000000       0.010
  -0.01870982  0.08083221  0.00000000       0.010
   0.00000000  0.10104026  0.00000000       0.010
   0.01870982  0.10104026  0.00000000       0.010
   0.03741965  0.10104026  0.00000000       0.010
   0.05612947  0.10104026  0.00000000       0.010
   0.07483930  0.10104026  0.00000000       0.010
   0.09354912  0.10104026  0.00000000       0.010
  -0.09354912  0.10104026  0.00000000       0.010
  -0.07483930  0.10104026  0.00000000       0.010
  -0.05612947  0.10104026  0.00000000       0.010
  -0.03741965  0.10104026  0.00000000       0.010
  -0.01870982  0.10104026  0.00000000       0.010
   0.00000000  0.12124831  0.00000000       0.010
   0.01870982  0.12124831  0.00000000       0.010
   0.03741965  0.12124831  0.00000000       0.010
   0.05612947  0.12124831  0.00000000       0.010
   0.07483930  0.12124831  0.00000000       0.010
   0.09354912  0.12124831  0.00000000       0.010
  -0.09354912  0.12124831  0.00000000       0.010
  -0.07483930  0.12124831  0.00000000       0.010
  -0.05612947  0.12124831  0.00000000       0.010
  -0.03741965  0.12124831  0.00000000       0.010
  -0.01870982  0.12124831  0.00000000       0.010
   0.00000000  0.14145636  0.00000000       0.010
   0.01870982  0.14145636  0.00000000       0.010
   0.03741965  0.14145636  0.00000000       0.010
   0.05612947  0.14145636  0.00000000       0.010
   0.07483930  0.14145636  0.00000000       0.010
   0.09354912  0.14145636  0.00000000       0.010
  -0.09354912  0.14145636  0.00000000       0.010
  -0.07483930  0.14145636  0.00000000       0.010
  -0.05612947  0.14145636  0.00000000       0.010
  -0.03741965  0.14145636  0.00000000       0.010
  -0.01870982  0.14145636  0.00000000       0.010
   0.00000000  0.16166441  0.00000000       0.010
   0.01870982  0.16166441  0.00000000       0.010
   0.03741965  0.16166441  0.00000000       0.010
   0.05612947  0.16166441  0.00000000       0.010
   0.07483930  0.16166441  0.00000000       0.010
   0.09354912  0.16166441  0.00000000       0.010
  -0.09354912  0.16166441  0.00000000       0.010
  -0.07483930  0.16166441  0.00000000       0.010
  -0.05612947  0.16166441  0.00000000       0.010
  -0.03741965  0.16166441  0.00000000       0.010
  -0.01870982  0.16166441  0.00000000       0.010
   0.00000000  0.18187246  0.00000000       0.005
   0.01870982  0.18187246  0.00000000       0.010
   0.03741965  0.18187246  0.00000000       0.010
   0.05612947  0.18187246  0.00000000       0.010
   0.07483930  0.18187246  0.00000000       0.010
   0.09354912  0.18187246  0.00000000       0.010
 
 k-points in reciprocal lattice and weights: K-Spacing Value to Generate K-Mesh: 0.02
   0.00000000  0.00000000  0.00000000       0.005
   0.09090909  0.00000000  0.00000000       0.010
   0.18181818  0.00000000  0.00000000       0.010
   0.27272727  0.00000000  0.00000000       0.010
   0.36363636  0.00000000  0.00000000       0.010
   0.45454545  0.00000000  0.00000000       0.010
   0.00000000  0.05555556  0.00000000       0.010
   0.09090909  0.05555556  0.00000000       0.010
   0.18181818  0.05555556  0.00000000       0.010
   0.27272727  0.05555556  0.00000000       0.010
   0.36363636  0.05555556  0.00000000       0.010
   0.45454545  0.05555556  0.00000000       0.010
  -0.45454545  0.05555556  0.00000000       0.010
  -0.36363636  0.05555556  0.00000000       0.010
  -0.27272727  0.05555556  0.00000000       0.010
  -0.18181818  0.05555556  0.00000000       0.010
  -0.09090909  0.05555556  0.00000000       0.010
   0.00000000  0.11111111  0.00000000       0.010
   0.09090909  0.11111111  0.00000000       0.010
   0.18181818  0.11111111  0.00000000       0.010
   0.27272727  0.11111111  0.00000000       0.010
   0.36363636  0.11111111  0.00000000       0.010
   0.45454545  0.11111111  0.00000000       0.010
  -0.45454545  0.11111111  0.00000000       0.010
  -0.36363636  0.11111111  0.00000000       0.010
  -0.27272727  0.11111111  0.00000000       0.010
  -0.18181818  0.11111111  0.00000000       0.010
  -0.09090909  0.11111111  0.00000000       0.010
   0.00000000  0.16666667  0.00000000       0.010
   0.09090909  0.16666667  0.00000000       0.010
   0.18181818  0.16666667  0.00000000       0.010
   0.27272727  0.16666667  0.00000000       0.010
   0.36363636  0.16666667  0.00000000       0.010
   0.45454545  0.16666667  0.00000000       0.010
  -0.45454545  0.16666667  0.00000000       0.010
  -0.36363636  0.16666667  0.00000000       0.010
  -0.27272727  0.16666667  0.00000000       0.010
  -0.18181818  0.16666667  0.00000000       0.010
  -0.09090909  0.16666667  0.00000000       0.010
   0.00000000  0.22222222  0.00000000       0.010
   0.09090909  0.22222222  0.00000000       0.010
   0.18181818  0.22222222  0.00000000       0.010
   0.27272727  0.22222222  0.00000000       0.010
   0.36363636  0.22222222  0.00000000       0.010
   0.45454545  0.22222222  0.00000000       0.010
  -0.45454545  0.22222222  0.00000000       0.010
  -0.36363636  0.22222222  0.00000000       0.010
  -0.27272727  0.22222222  0.00000000       0.010
  -0.18181818  0.22222222  0.00000000       0.010
  -0.09090909  0.22222222  0.00000000       0.010
   0.00000000  0.27777778  0.00000000       0.010
   0.09090909  0.27777778  0.00000000       0.010
   0.18181818  0.27777778  0.00000000       0.010
   0.27272727  0.27777778  0.00000000       0.010
   0.36363636  0.27777778  0.00000000       0.010
   0.45454545  0.27777778  0.00000000       0.010
  -0.45454545  0.27777778  0.00000000       0.010
  -0.36363636  0.27777778  0.00000000       0.010
  -0.27272727  0.27777778  0.00000000       0.010
  -0.18181818  0.27777778  0.00000000       0.010
  -0.09090909  0.27777778  0.00000000       0.010
   0.00000000  0.33333333  0.00000000       0.010
   0.09090909  0.33333333  0.00000000       0.010
   0.18181818  0.33333333  0.00000000       0.010
   0.27272727  0.33333333  0.00000000       0.010
   0.36363636  0.33333333  0.00000000       0.010
   0.45454545  0.33333333  0.00000000       0.010
  -0.45454545  0.33333333  0.00000000       0.010
  -0.36363636  0.33333333  0.00000000       0.010
  -0.27272727  0.33333333  0.00000000       0.010
  -0.18181818  0.33333333  0.00000000       0.010
  -0.09090909  0.33333333  0.00000000       0.010
   0.00000000  0.38888889  0.00000000       0.010
   0.09090909  0.38888889  0.00000000       0.010
   0.18181818  0.38888889  0.00000000       0.010
   0.27272727  0.38888889  0.00000000       0.010
   0.36363636  0.38888889  0.00000000       0.010
   0.45454545  0.38888889  0.00000000       0.010
  -0.45454545  0.38888889  0.00000000       0.010
  -0.36363636  0.38888889  0.00000000       0.010
  -0.27272727  0.38888889  0.00000000       0.010
  -0.18181818  0.38888889  0.00000000       0.010
  -0.09090909  0.38888889  0.00000000       0.010
   0.00000000  0.44444444  0.00000000       0.010
   0.09090909  0.44444444  0.00000000       0.010
   0.18181818  0.44444444  0.00000000       0.010
   0.27272727  0.44444444  0.00000000       0.010
   0.36363636  0.44444444  0.00000000       0.010
   0.45454545  0.44444444  0.00000000       0.010
  -0.45454545  0.44444444  0.00000000       0.010
  -0.36363636  0.44444444  0.00000000       0.010
  -0.27272727  0.44444444  0.00000000       0.010
  -0.18181818  0.44444444  0.00000000       0.010
  -0.09090909  0.44444444  0.00000000       0.010
   0.00000000  0.50000000  0.00000000       0.005
   0.09090909  0.50000000  0.00000000       0.010
   0.18181818  0.50000000  0.00000000       0.010
   0.27272727  0.50000000  0.00000000       0.010
   0.36363636  0.50000000  0.00000000       0.010
   0.45454545  0.50000000  0.00000000       0.010
 
 position of ions in fractional coordinates (direct lattice) 
   0.00000000  0.00000000  0.00000000
   0.66666667  0.00000000  0.09278202
   0.33333333  0.00000000  0.18556404
   0.50000000  0.50000000  0.00000000
   0.16666667  0.50000000  0.09278202
   0.83333333  0.50000000  0.18556404
   0.00000000  0.00000000  0.27834606
   0.50000000  0.50000000  0.27834606
 
 position of ions in cartesian coordinates  (Angst):
   0.00000000  0.00000000  0.00000000
   3.23926402  0.00000000  2.31955046
   1.61963199  0.00000000  4.63910099
   2.42944800  1.37458961  0.00000000
   0.80981602  1.37458961  2.31955046
   4.04907999  1.37458961  4.63910099
   0.00000000  0.00000000  6.95865145
   2.42944800  1.37458961  6.95865145
 


--------------------------------------------------------------------------------------------------------


 k-point  1 :   0.0000 0.0000 0.0000  plane waves:    6095
 k-point  2 :   0.0909 0.0000 0.0000  plane waves:    6060
 k-point  3 :   0.1818 0.0000 0.0000  plane waves:    6094
 k-point  4 :   0.2727 0.0000 0.0000  plane waves:    6116
 k-point  5 :   0.3636 0.0000 0.0000  plane waves:    6128
 k-point  6 :   0.4545 0.0000 0.0000  plane waves:    6150
 k-point  7 :   0.0000 0.0556 0.0000  plane waves:    6065
 k-point  8 :   0.0909 0.0556 0.0000  plane waves:    6082
 k-point  9 :   0.1818 0.0556 0.0000  plane waves:    6085
 k-point 10 :   0.2727 0.0556 0.0000  plane waves:    6110
 k-point 11 :   0.3636 0.0556 0.0000  plane waves:    6131
 k-point 12 :   0.4545 0.0556 0.0000  plane waves:    6124
 k-point 13 :  -0.4545 0.0556 0.0000  plane waves:    6124
 k-point 14 :  -0.3636 0.0556 0.0000  plane waves:    6131
 k-point 15 :  -0.2727 0.0556 0.0000  plane waves:    6110
 k-point 16 :  -0.1818 0.0556 0.0000  plane waves:    6085
 k-point 17 :  -0.0909 0.0556 0.0000  plane waves:    6082
 k-point 18 :   0.0000 0.1111 0.0000  plane waves:    6065
 k-point 19 :   0.0909 0.1111 0.0000  plane waves:    6075
 k-point 20 :   0.1818 0.1111 0.0000  plane waves:    6080
 k-point 21 :   0.2727 0.1111 0.0000  plane waves:    6092
 k-point 22 :   0.3636 0.1111 0.0000  plane waves:    6128
 k-point 23 :   0.4545 0.1111 0.0000  plane waves:    6136
 k-point 24 :  -0.4545 0.1111 0.0000  plane waves:    6136
 k-point 25 :  -0.3636 0.1111 0.0000  plane waves:    6128
 k-point 26 :  -0.2727 0.1111 0.0000  plane waves:    6092
 k-point 27 :  -0.1818 0.1111 0.0000  plane waves:    6080
 k-point 28 :  -0.0909 0.1111 0.0000  plane waves:    6075
 k-point 29 :   0.0000 0.1667 0.0000  plane waves:    6059
 k-point 30 :   0.0909 0.1667 0.0000  plane waves:    6078
 k-point 31 :   0.1818 0.1667 0.0000  plane waves:    6082
 k-point 32 :   0.2727 0.1667 0.0000  plane waves:    6102
 k-point 33 :   0.3636 0.1667 0.0000  plane waves:    6105
 k-point 34 :   0.4545 0.1667 0.0000  plane waves:    6106
 k-point 35 :  -0.4545 0.1667 0.0000  plane waves:    6106
 k-point 36 :  -0.3636 0.1667 0.0000  plane waves:    6105
 k-point 37 :  -0.2727 0.1667 0.0000  plane waves:    6102
 k-point 38 :  -0.1818 0.1667 0.0000  plane waves:    6082
 k-point 39 :  -0.0909 0.1667 0.0000  plane waves:    6078
 k-point 40 :   0.0000 0.2222 0.0000  plane waves:    6081
 k-point 41 :   0.0909 0.2222 0.0000  plane waves:    6070
 k-point 42 :   0.1818 0.2222 0.0000  plane waves:    6083
 k-point 43 :   0.2727 0.2222 0.0000  plane waves:    6072
 k-point 44 :   0.3636 0.2222 0.0000  plane waves:    6086
 k-point 45 :   0.4545 0.2222 0.0000  plane waves:    6091
 k-point 46 :  -0.4545 0.2222 0.0000  plane waves:    6091
 k-point 47 :  -0.3636 0.2222 0.0000  plane waves:    6086
 k-point 48 :  -0.2727 0.2222 0.0000  plane waves:    6072
 k-point 49 :  -0.1818 0.2222 0.0000  plane waves:    6083
 k-point 50 :  -0.0909 0.2222 0.0000  plane waves:    6070
 k-point 51 :   0.0000 0.2778 0.0000  plane waves:    6063
 k-point 52 :   0.0909 0.2778 0.0000  plane waves:    6075
 k-point 53 :   0.1818 0.2778 0.0000  plane waves:    6072
 k-point 54 :   0.2727 0.2778 0.0000  plane waves:    6094
 k-point 55 :   0.3636 0.2778 0.0000  plane waves:    6056
 k-point 56 :   0.4545 0.2778 0.0000  plane waves:    6054
 k-point 57 :  -0.4545 0.2778 0.0000  plane waves:    6054
 k-point 58 :  -0.3636 0.2778 0.0000  plane waves:    6056
 k-point 59 :  -0.2727 0.2778 0.0000  plane waves:    6094
 k-point 60 :  -0.1818 0.2778 0.0000  plane waves:    6072
 k-point 61 :  -0.0909 0.2778 0.0000  plane waves:    6075
 k-point 62 :   0.0000 0.3333 0.0000  plane waves:    6057
 k-point 63 :   0.0909 0.3333 0.0000  plane waves:    6048
 k-point 64 :   0.1818 0.3333 0.0000  plane waves:    6058
 k-point 65 :   0.2727 0.3333 0.0000  plane waves:    6059
 k-point 66 :   0.3636 0.3333 0.0000  plane waves:    6041
 k-point 67 :   0.4545 0.3333 0.0000  plane waves:    6050
 k-point 68 :  -0.4545 0.3333 0.0000  plane waves:    6050
 k-point 69 :  -0.3636 0.3333 0.0000  plane waves:    6041
 k-point 70 :  -0.2727 0.3333 0.0000  plane waves:    6059
 k-point 71 :  -0.1818 0.3333 0.0000  plane waves:    6058
 k-point 72 :  -0.0909 0.3333 0.0000  plane waves:    6048
 k-point 73 :   0.0000 0.3889 0.0000  plane waves:    6035
 k-point 74 :   0.0909 0.3889 0.0000  plane waves:    6039
 k-point 75 :   0.1818 0.3889 0.0000  plane waves:    6039
 k-point 76 :   0.2727 0.3889 0.0000  plane waves:    6038
 k-point 77 :   0.3636 0.3889 0.0000  plane waves:    6034
 k-point 78 :   0.4545 0.3889 0.0000  plane waves:    6025
 k-point 79 :  -0.4545 0.3889 0.0000  plane waves:    6025
 k-point 80 :  -0.3636 0.3889 0.0000  plane waves:    6034
 k-point 81 :  -0.2727 0.3889 0.0000  plane waves:    6038
 k-point 82 :  -0.1818 0.3889 0.0000  plane waves:    6039
 k-point 83 :  -0.0909 0.3889 0.0000  plane waves:    6039
 k-point 84 :   0.0000 0.4444 0.0000  plane waves:    6005
 k-point 85 :   0.0909 0.4444 0.0000  plane waves:    5997
 k-point 86 :   0.1818 0.4444 0.0000  plane waves:    6024
 k-point 87 :   0.2727 0.4444 0.0000  plane waves:    6028
 k-point 88 :   0.3636 0.4444 0.0000  plane waves:    6019
 k-point 89 :   0.4545 0.4444 0.0000  plane waves:    6014
 k-point 90 :  -0.4545 0.4444 0.0000  plane waves:    6014
 k-point 91 :  -0.3636 0.4444 0.0000  plane waves:    6019
 k-point 92 :  -0.2727 0.4444 0.0000  plane waves:    6028
 k-point 93 :  -0.1818 0.4444 0.0000  plane waves:    6024
 k-point 94 :  -0.0909 0.4444 0.0000  plane waves:    5997
 k-point 95 :   0.0000 0.5000 0.0000  plane waves:    5984
 k-point 96 :   0.0909 0.5000 0.0000  plane waves:    5990
 k-point 97 :   0.1818 0.5000 0.0000  plane waves:    6004
 k-point 98 :   0.2727 0.5000 0.0000  plane waves:    6004
 k-point 99 :   0.3636 0.5000 0.0000  plane waves:    6012
 k-point ** :   0.4545 0.5000 0.0000  plane waves:    6014

 maximum and minimum number of plane-waves per node :      1550     1484

 maximum number of plane-waves:      6150
 maximum index in each direction: 
   IXMAX=    8   IYMAX=    4   IZMAX=   40
   IXMIN=   -8   IYMIN=   -4   IZMIN=  -40


 parallel 3D FFT for wavefunctions:
    minimum data exchange during FFTs selected (reduces bandwidth)
 parallel 3D FFT for charge:
    minimum data exchange during FFTs selected (reduces bandwidth)


 total amount of memory used by VASP MPI-rank0    64253. kBytes
=======================================================================

   base      :      30000. kBytes
   nonl-proj :      22663. kBytes
   fftplans  :        577. kBytes
   grid      :        768. kBytes
   one-center:         31. kBytes
   wavefun   :      10214. kBytes
 
     INWAV:  cpu time    0.0000: real time    0.0000
 Broyden mixing: mesh for mixing (old mesh)
   NGX = 15   NGY =  9   NGZ = 81
  (NGX  = 48   NGY  = 28   NGZ  =252)
  gives a total of  10935 points

 initial charge density was supplied:
 charge density of overlapping atoms calculated
 number of electron      80.0000000 magnetization 
 keeping initial charge density in first step


--------------------------------------------------------------------------------------------------------


 Maximum index for augmentation-charges          473 (set IRDMAX)


--------------------------------------------------------------------------------------------------------


 First call to EWALD:  gamma=   0.255
 Maximum number of real-space cells 4x 6x 1
 Maximum number of reciprocal cells 2x 1x 9

    FEWALD:  cpu time    0.0015: real time    0.0031


--------------------------------------- Iteration      1(   1)  ---------------------------------------


    POTLOK:  cpu time    0.0085: real time    0.0089
    SETDIJ:  cpu time    0.0028: real time    0.0028
     EDDAV:  cpu time    6.6825: real time    6.6850
       DOS:  cpu time    0.0020: real time    0.0020
    --------------------------------------------
      LOOP:  cpu time    6.6958: real time    6.6988

 eigenvalue-minimisations  :  9612
 total energy-change (2. order) : 0.4793945E+03  (-0.3107063E+04)
 number of electron      80.0000000 magnetization 
 augmentation part       80.0000000 magnetization 

 DIPCOR: dipole corrections for dipol
 direction  3 min pos   169,
 dipolmoment           0.000000      0.000000      0.000034 electrons x Angstroem
 Tr[quadrupol]      -253.695323

 energy correction for charged system         0.000000 eV
 dipol+quadrupol energy correction           -0.000000 eV
 added-field ion interaction          0.001004 eV  (added to PSCEN)


 Free energy of the ion-electron system (eV)
  ---------------------------------------------------
  alpha Z        PSCENC =       182.17618117
  Ewald energy   TEWEN  =     30367.43665672
  -Hartree energ DENC   =    -36517.01993400
  -exchange      EXHF   =         0.00000000
  -V(xc)+E(xc)   XCENC  =        27.18326305
  PAW double counting   =      5568.98828343    -5342.72235985
  entropy T*S    EENTRO =         0.00034340
  eigenvalues    EBANDS =       360.45649063
  atomic energy  EATOM  =      5832.89561447
  Solvation  Ediel_sol  =         0.00000000
  ---------------------------------------------------
  free energy    TOTEN  =       479.39453901 eV

  energy without entropy =      479.39419561  energy(sigma->0) =      479.39442454


--------------------------------------------------------------------------------------------------------




--------------------------------------- Iteration      1(   2)  ---------------------------------------


     EDDAV:  cpu time    9.1673: real time    9.1708
       DOS:  cpu time    0.0024: real time    0.0023
    --------------------------------------------
      LOOP:  cpu time    9.1697: real time    9.1731

 eigenvalue-minimisations  : 12960
 total energy-change (2. order) :-0.5027301E+03  (-0.4825502E+03)
 number of electron      80.0000000 magnetization 
 augmentation part       80.0000000 magnetization 

 DIPCOR: dipole corrections for dipol
 direction  3 min pos   169,
 dipolmoment           0.000000      0.000000      0.000034 electrons x Angstroem
 Tr[quadrupol]      -253.695323

 energy correction for charged system         0.000000 eV
 dipol+quadrupol energy correction           -0.000000 eV
 added-field ion interaction          0.001004 eV  (added to PSCEN)


 Free energy of the ion-electron system (eV)
  ---------------------------------------------------
  alpha Z        PSCENC =       182.17618117
  Ewald energy   TEWEN  =     30367.43665672
  -Hartree energ DENC   =    -36517.01993400
  -exchange      EXHF   =         0.00000000
  -V(xc)+E(xc)   XCENC  =        27.18326305
  PAW double counting   =      5568.98828343    -5342.72235985
  entropy T*S    EENTRO =        -0.00086004
  eigenvalues    EBANDS =      -142.27239821
  atomic energy  EATOM  =      5832.89561447
  Solvation  Ediel_sol  =         0.00000000
  ---------------------------------------------------
  free energy    TOTEN  =       -23.33555327 eV

  energy without entropy =      -23.33469323  energy(sigma->0) =      -23.33526659


--------------------------------------------------------------------------------------------------------




--------------------------------------- Iteration      1(   3)  ---------------------------------------


     EDDAV:  cpu time    8.3700: real time    8.3742
       DOS:  cpu time    0.0027: real time    0.0027
    --------------------------------------------
      LOOP:  cpu time    8.3727: real time    8.3770

 eigenvalue-minimisations  : 11964
 total energy-change (2. order) :-0.2547346E+02  (-0.2443908E+02)
 number of electron      80.0000000 magnetization 
 augmentation part       80.0000000 magnetization 

 DIPCOR: dipole corrections for dipol
 direction  3 min pos   169,
 dipolmoment           0.000000      0.000000      0.000034 electrons x Angstroem
 Tr[quadrupol]      -253.695323

 energy correction for charged system         0.000000 eV
 dipol+quadrupol energy correction           -0.000000 eV
 added-field ion interaction          0.001004 eV  (added to PSCEN)


 Free energy of the ion-electron system (eV)
  ---------------------------------------------------
  alpha Z        PSCENC =       182.17618117
  Ewald energy   TEWEN  =     30367.43665672
  -Hartree energ DENC   =    -36517.01993400
  -exchange      EXHF   =         0.00000000
  -V(xc)+E(xc)   XCENC  =        27.18326305
  PAW double counting   =      5568.98828343    -5342.72235985
  entropy T*S    EENTRO =        -0.01031872
  eigenvalues    EBANDS =      -167.73640093
  atomic energy  EATOM  =      5832.89561447
  Solvation  Ediel_sol  =         0.00000000
  ---------------------------------------------------
  free energy    TOTEN  =       -48.80901468 eV

  energy without entropy =      -48.79869595  energy(sigma->0) =      -48.80557510


--------------------------------------------------------------------------------------------------------




--------------------------------------- Iteration      1(   4)  ---------------------------------------


     EDDAV:  cpu time    8.4773: real time    8.4810
       DOS:  cpu time    0.0024: real time    0.0024
    --------------------------------------------
      LOOP:  cpu time    8.4797: real time    8.4834

 eigenvalue-minimisations  : 12120
 total energy-change (2. order) :-0.6620268E+00  (-0.6559979E+00)
 number of electron      80.0000000 magnetization 
 augmentation part       80.0000000 magnetization 

 DIPCOR: dipole corrections for dipol
 direction  3 min pos   169,
 dipolmoment           0.000000      0.000000      0.000034 electrons x Angstroem
 Tr[quadrupol]      -253.695323

 energy correction for charged system         0.000000 eV
 dipol+quadrupol energy correction           -0.000000 eV
 added-field ion interaction          0.001004 eV  (added to PSCEN)


 Free energy of the ion-electron system (eV)
  ---------------------------------------------------
  alpha Z        PSCENC =       182.17618117
  Ewald energy   TEWEN  =     30367.43665672
  -Hartree energ DENC   =    -36517.01993400
  -exchange      EXHF   =         0.00000000
  -V(xc)+E(xc)   XCENC  =        27.18326305
  PAW double counting   =      5568.98828343    -5342.72235985
  entropy T*S    EENTRO =        -0.01017800
  eigenvalues    EBANDS =      -168.39856846
  atomic energy  EATOM  =      5832.89561447
  Solvation  Ediel_sol  =         0.00000000
  ---------------------------------------------------
  free energy    TOTEN  =       -49.47104148 eV

  energy without entropy =      -49.46086348  energy(sigma->0) =      -49.46764881


--------------------------------------------------------------------------------------------------------




--------------------------------------- Iteration      1(   5)  ---------------------------------------


     EDDAV:  cpu time    9.4440: real time    9.4473
       DOS:  cpu time    0.0024: real time    0.0024
    CHARGE:  cpu time    0.0677: real time    0.0678
    MIXING:  cpu time    0.0011: real time    0.0013
    --------------------------------------------
      LOOP:  cpu time    9.5153: real time    9.5189

 eigenvalue-minimisations  : 13380
 total energy-change (2. order) :-0.2260769E-01  (-0.2253459E-01)
 number of electron      80.0000056 magnetization 
 augmentation part       23.2910641 magnetization 

 DIPCOR: dipole corrections for dipol
 direction  3 min pos   169,
 dipolmoment           0.000000      0.000000      0.000034 electrons x Angstroem
 Tr[quadrupol]      -253.695323

 energy correction for charged system         0.000000 eV
 dipol+quadrupol energy correction           -0.000000 eV
 added-field ion interaction          0.001004 eV  (added to PSCEN)


 Broyden mixing:
  rms(total) = 0.29286E+01    rms(broyden)= 0.29286E+01
  rms(prec ) = 0.29604E+01
  weight for this iteration     100.00

 Free energy of the ion-electron system (eV)
  ---------------------------------------------------
  alpha Z        PSCENC =       182.17618117
  Ewald energy   TEWEN  =     30367.43665672
  -Hartree energ DENC   =    -36517.01993400
  -exchange      EXHF   =         0.00000000
  -V(xc)+E(xc)   XCENC  =        27.18326305
  PAW double counting   =      5568.98828343    -5342.72235985
  entropy T*S    EENTRO =        -0.01023467
  eigenvalues    EBANDS =      -168.42111948
  atomic energy  EATOM  =      5832.89561447
  Solvation  Ediel_sol  =         0.00000000
  ---------------------------------------------------
  free energy    TOTEN  =       -49.49364917 eV

  energy without entropy =      -49.48341450  energy(sigma->0) =      -49.49023761


--------------------------------------------------------------------------------------------------------




--------------------------------------- Iteration      1(   6)  ---------------------------------------


    POTLOK:  cpu time    0.0065: real time    0.0066
    SETDIJ:  cpu time    0.0021: real time    0.0021
    EDDIAG:  cpu time    0.7792: real time    0.7796
  RMM-DIIS:  cpu time    1.6431: real time    1.6433
    ORTHCH:  cpu time    0.1809: real time    0.1809
       DOS:  cpu time    0.0024: real time    0.0023
    CHARGE:  cpu time    0.0669: real time    0.0670
    MIXING:  cpu time    0.0009: real time    0.0009
    --------------------------------------------
      LOOP:  cpu time    2.6819: real time    2.6829

 eigenvalue-minimisations  :  9670
 total energy-change (2. order) : 0.1987544E+01  (-0.7989429E+00)
 number of electron      80.0000056 magnetization 
 augmentation part       24.5511764 magnetization 

 DIPCOR: dipole corrections for dipol
 direction  3 min pos   167,
 dipolmoment           0.000000      0.000000      0.006395 electrons x Angstroem
 Tr[quadrupol]      -252.593612

 energy correction for charged system         0.000000 eV
 dipol+quadrupol energy correction           -0.000011 eV
 added-field ion interaction          0.135534 eV  (added to PSCEN)


 Broyden mixing:
  rms(total) = 0.20219E+01    rms(broyden)= 0.20219E+01
  rms(prec ) = 0.21053E+01
  weight for this iteration     100.00

 eigenvalues of (default mixing * dielectric matrix)
  average eigenvalue GAMMA=   1.4490
  1.4490

 Free energy of the ion-electron system (eV)
  ---------------------------------------------------
  alpha Z        PSCENC =       182.31070039
  Ewald energy   TEWEN  =     30367.43665672
  -Hartree energ DENC   =    -36424.20152262
  -exchange      EXHF   =         0.00000000
  -V(xc)+E(xc)   XCENC  =        25.09757916
  PAW double counting   =      6141.99741266    -5927.45351612
  entropy T*S    EENTRO =        -0.00154678
  eigenvalues    EBANDS =      -245.58748254
  atomic energy  EATOM  =      5832.89561447
  Solvation  Ediel_sol  =         0.00000000
  ---------------------------------------------------
  free energy    TOTEN  =       -47.50610467 eV

  energy without entropy =      -47.50455789  energy(sigma->0) =      -47.50558907


--------------------------------------------------------------------------------------------------------




--------------------------------------- Iteration      1(   7)  ---------------------------------------


    POTLOK:  cpu time    0.0043: real time    0.0043
    SETDIJ:  cpu time    0.0020: real time    0.0020
    EDDIAG:  cpu time    0.7756: real time    0.7756
  RMM-DIIS:  cpu time    1.6249: real time    1.6253
    ORTHCH:  cpu time    0.1815: real time    0.1815
       DOS:  cpu time    0.0024: real time    0.0024
    CHARGE:  cpu time    0.0704: real time    0.0704
    MIXING:  cpu time    0.0004: real time    0.0004
    --------------------------------------------
      LOOP:  cpu time    2.6614: real time    2.6619

 eigenvalue-minimisations  :  9694
 total energy-change (2. order) :-0.1154636E+02  (-0.2042152E+01)
 number of electron      80.0000068 magnetization 
 augmentation part       24.1994841 magnetization 

 DIPCOR: dipole corrections for dipol
 direction  3 min pos   165,
 dipolmoment           0.000000      0.000000     -0.070819 electrons x Angstroem
 Tr[quadrupol]      -255.496501

 energy correction for charged system         0.000000 eV
 dipol+quadrupol energy correction           -0.001359 eV
 added-field ion interaction         -0.891854 eV  (added to PSCEN)


 Broyden mixing:
  rms(total) = 0.28672E+01    rms(broyden)= 0.28671E+01
  rms(prec ) = 0.33521E+01
  weight for this iteration     100.00

 eigenvalues of (default mixing * dielectric matrix)
  average eigenvalue GAMMA=   1.2187
  2.1695  0.2679

 Free energy of the ion-electron system (eV)
  ---------------------------------------------------
  alpha Z        PSCENC =       181.28196405
  Ewald energy   TEWEN  =     30367.43665672
  -Hartree energ DENC   =    -36496.92771666
  -exchange      EXHF   =         0.00000000
  -V(xc)+E(xc)   XCENC  =        24.37504323
  PAW double counting   =      6610.16178561    -6401.18896528
  entropy T*S    EENTRO =         0.00123365
  eigenvalues    EBANDS =      -177.08807707
  atomic energy  EATOM  =      5832.89561447
  Solvation  Ediel_sol  =         0.00000000
  ---------------------------------------------------
  free energy    TOTEN  =       -59.05246127 eV

  energy without entropy =      -59.05369492  energy(sigma->0) =      -59.05287249


--------------------------------------------------------------------------------------------------------




--------------------------------------- Iteration      1(   8)  ---------------------------------------


    POTLOK:  cpu time    0.0045: real time    0.0045
    SETDIJ:  cpu time    0.0021: real time    0.0021
    EDDIAG:  cpu time    0.7778: real time    0.7780
  RMM-DIIS:  cpu time    1.6377: real time    1.6380
    ORTHCH:  cpu time    0.1819: real time    0.1819
       DOS:  cpu time    0.0025: real time    0.0025
    CHARGE:  cpu time    0.0684: real time    0.0684
    MIXING:  cpu time    0.0004: real time    0.0004
    --------------------------------------------
      LOOP:  cpu time    2.6752: real time    2.6758

 eigenvalue-minimisations  :  9644
 total energy-change (2. order) : 0.1112060E+02  (-0.6159101E+00)
 number of electron      80.0000062 magnetization 
 augmentation part       24.9994941 magnetization 

 DIPCOR: dipole corrections for dipol
 direction  3 min pos   168,
 dipolmoment           0.000000      0.000000      0.073149 electrons x Angstroem
 Tr[quadrupol]      -253.778378

 energy correction for charged system         0.000000 eV
 dipol+quadrupol energy correction           -0.001450 eV
 added-field ion interaction          1.864914 eV  (added to PSCEN)


 Broyden mixing:
  rms(total) = 0.11827E+01    rms(broyden)= 0.11827E+01
  rms(prec ) = 0.15647E+01
  weight for this iteration     100.00

 eigenvalues of (default mixing * dielectric matrix)
  average eigenvalue GAMMA=   0.9645
  2.1367  0.3783  0.3783

 Free energy of the ion-electron system (eV)
  ---------------------------------------------------
  alpha Z        PSCENC =       184.03864117
  Ewald energy   TEWEN  =     30367.43665672
  -Hartree energ DENC   =    -36426.25552951
  -exchange      EXHF   =         0.00000000
  -V(xc)+E(xc)   XCENC  =        23.93912267
  PAW double counting   =      7004.07957339    -6800.50850149
  entropy T*S    EENTRO =         0.00600321
  eigenvalues    EBANDS =      -233.56344048
  atomic energy  EATOM  =      5832.89561447
  Solvation  Ediel_sol  =         0.00000000
  ---------------------------------------------------
  free energy    TOTEN  =       -47.93185986 eV

  energy without entropy =      -47.93786307  energy(sigma->0) =      -47.93386093


--------------------------------------------------------------------------------------------------------




--------------------------------------- Iteration      1(   9)  ---------------------------------------


    POTLOK:  cpu time    0.0048: real time    0.0048
    SETDIJ:  cpu time    0.0021: real time    0.0020
    EDDIAG:  cpu time    0.7794: real time    0.7796
  RMM-DIIS:  cpu time    1.6207: real time    1.6209
    ORTHCH:  cpu time    0.1822: real time    0.1823
       DOS:  cpu time    0.0024: real time    0.0024
    CHARGE:  cpu time    0.0663: real time    0.0665
    MIXING:  cpu time    0.0004: real time    0.0004
    --------------------------------------------
      LOOP:  cpu time    2.6583: real time    2.6589

 eigenvalue-minimisations  :  9657
 total energy-change (2. order) :-0.7389912E+01  (-0.4097827E+00)
 number of electron      80.0000055 magnetization 
 augmentation part       24.7050290 magnetization 

 DIPCOR: dipole corrections for dipol
 direction  3 min pos   164,
 dipolmoment           0.000000      0.000000     -0.288708 electrons x Angstroem
 Tr[quadrupol]      -253.311571

 energy correction for charged system         0.000000 eV
 dipol+quadrupol energy correction           -0.022583 eV
 added-field ion interaction         -2.394253 eV  (added to PSCEN)


 Broyden mixing:
  rms(total) = 0.22040E+01    rms(broyden)= 0.22039E+01
  rms(prec ) = 0.33375E+01
  weight for this iteration     100.00

 eigenvalues of (default mixing * dielectric matrix)
  average eigenvalue GAMMA=   0.9233
  2.2033  1.0895  0.2931  0.1072

 Free energy of the ion-electron system (eV)
  ---------------------------------------------------
  alpha Z        PSCENC =       179.75834170
  Ewald energy   TEWEN  =     30367.43665672
  -Hartree energ DENC   =    -36422.08031033
  -exchange      EXHF   =         0.00000000
  -V(xc)+E(xc)   XCENC  =        24.04918000
  PAW double counting   =      7018.87087099    -6815.12332771
  entropy T*S    EENTRO =         0.00089132
  eigenvalues    EBANDS =      -241.12968869
  atomic energy  EATOM  =      5832.89561447
  Solvation  Ediel_sol  =         0.00000000
  ---------------------------------------------------
  free energy    TOTEN  =       -55.32177153 eV

  energy without entropy =      -55.32266286  energy(sigma->0) =      -55.32206864


--------------------------------------------------------------------------------------------------------




--------------------------------------- Iteration      1(  10)  ---------------------------------------


    POTLOK:  cpu time    0.0046: real time    0.0046
    SETDIJ:  cpu time    0.0021: real time    0.0021
    EDDIAG:  cpu time    0.7813: real time    0.7813
  RMM-DIIS:  cpu time    1.6176: real time    1.6180
    ORTHCH:  cpu time    0.1818: real time    0.1818
       DOS:  cpu time    0.0024: real time    0.0024
    CHARGE:  cpu time    0.0686: real time    0.0686
    MIXING:  cpu time    0.0005: real time    0.0005
    --------------------------------------------
      LOOP:  cpu time    2.6589: real time    2.6593

 eigenvalue-minimisations  :  9635
 total energy-change (2. order) : 0.6691457E+01  (-0.4122483E+00)
 number of electron      80.0000061 magnetization 
 augmentation part       24.8768661 magnetization 

 DIPCOR: dipole corrections for dipol
 direction  3 min pos   163,
 dipolmoment           0.000000      0.000000      0.113856 electrons x Angstroem
 Tr[quadrupol]      -253.424404

 energy correction for charged system         0.000000 eV
 dipol+quadrupol energy correction           -0.003512 eV
 added-field ion interaction          0.454572 eV  (added to PSCEN)


 Broyden mixing:
  rms(total) = 0.12893E+01    rms(broyden)= 0.12892E+01
  rms(prec ) = 0.16106E+01
  weight for this iteration     100.00

 eigenvalues of (default mixing * dielectric matrix)
  average eigenvalue GAMMA=   0.8145
  2.2654  1.2308  0.2770  0.2091  0.0904

 Free energy of the ion-electron system (eV)
  ---------------------------------------------------
  alpha Z        PSCENC =       182.62623725
  Ewald energy   TEWEN  =     30367.43665672
  -Hartree energ DENC   =    -36424.93473741
  -exchange      EXHF   =         0.00000000
  -V(xc)+E(xc)   XCENC  =        24.18843521
  PAW double counting   =      7069.01564879    -6865.33406775
  entropy T*S    EENTRO =        -0.00111639
  eigenvalues    EBANDS =      -234.52298525
  atomic energy  EATOM  =      5832.89561447
  Solvation  Ediel_sol  =         0.00000000
  ---------------------------------------------------
  free energy    TOTEN  =       -48.63031437 eV

  energy without entropy =      -48.62919798  energy(sigma->0) =      -48.62994224


--------------------------------------------------------------------------------------------------------




--------------------------------------- Iteration      1(  11)  ---------------------------------------


    POTLOK:  cpu time    0.0048: real time    0.0067
    SETDIJ:  cpu time    0.0021: real time    0.0021
    EDDIAG:  cpu time    0.8107: real time    0.8109
  RMM-DIIS:  cpu time    1.5780: real time    1.5784
    ORTHCH:  cpu time    0.1816: real time    0.1816
       DOS:  cpu time    0.0024: real time    0.0024
    CHARGE:  cpu time    0.0665: real time    0.0665
    MIXING:  cpu time    0.0005: real time    0.0005
    --------------------------------------------
      LOOP:  cpu time    2.6466: real time    2.6491

 eigenvalue-minimisations  :  9613
 total energy-change (2. order) : 0.1836477E+01  (-0.5808595E-01)
 number of electron      80.0000061 magnetization 
 augmentation part       24.8703550 magnetization 

 DIPCOR: dipole corrections for dipol
 direction  3 min pos   164,
 dipolmoment           0.000000      0.000000      0.015633 electrons x Angstroem
 Tr[quadrupol]      -253.408788

 energy correction for charged system         0.000000 eV
 dipol+quadrupol energy correction           -0.000066 eV
 added-field ion interaction          0.129645 eV  (added to PSCEN)


 Broyden mixing:
  rms(total) = 0.65880E+00    rms(broyden)= 0.65878E+00
  rms(prec ) = 0.75295E+00
  weight for this iteration     100.00

 eigenvalues of (default mixing * dielectric matrix)
  average eigenvalue GAMMA=   0.7279
  2.1002  1.1642  0.3423  0.3423  0.3277  0.0910

 Free energy of the ion-electron system (eV)
  ---------------------------------------------------
  alpha Z        PSCENC =       182.30475604
  Ewald energy   TEWEN  =     30367.43665672
  -Hartree energ DENC   =    -36426.56031130
  -exchange      EXHF   =         0.00000000
  -V(xc)+E(xc)   XCENC  =        24.22523446
  PAW double counting   =      7100.15252969    -6896.65067078
  entropy T*S    EENTRO =        -0.00895414
  eigenvalues    EBANDS =      -230.58869211
  atomic energy  EATOM  =      5832.89561447
  Solvation  Ediel_sol  =         0.00000000
  ---------------------------------------------------
  free energy    TOTEN  =       -46.79383696 eV

  energy without entropy =      -46.78488282  energy(sigma->0) =      -46.79085225


--------------------------------------------------------------------------------------------------------




--------------------------------------- Iteration      1(  12)  ---------------------------------------


    POTLOK:  cpu time    0.0062: real time    0.0080
    SETDIJ:  cpu time    0.0021: real time    0.0021
    EDDIAG:  cpu time    0.7800: real time    0.7802
  RMM-DIIS:  cpu time    1.6515: real time    1.6517
    ORTHCH:  cpu time    0.1815: real time    0.1815
       DOS:  cpu time    0.0025: real time    0.0025
    CHARGE:  cpu time    0.0688: real time    0.0690
    MIXING:  cpu time    0.0005: real time    0.0005
    --------------------------------------------
      LOOP:  cpu time    2.6931: real time    2.6954

 eigenvalue-minimisations  :  9707
 total energy-change (2. order) : 0.2556960E+00  (-0.3131603E-01)
 number of electron      80.0000059 magnetization 
 augmentation part       24.8755608 magnetization 

 DIPCOR: dipole corrections for dipol
 direction  3 min pos   162,
 dipolmoment           0.000000      0.000000      0.017710 electrons x Angstroem
 Tr[quadrupol]      -253.266365

 energy correction for charged system         0.000000 eV
 dipol+quadrupol energy correction           -0.000085 eV
 added-field ion interaction         -0.005453 eV  (added to PSCEN)


 Broyden mixing:
  rms(total) = 0.36908E+00    rms(broyden)= 0.36905E+00
  rms(prec ) = 0.42059E+00
  weight for this iteration     100.00

 eigenvalues of (default mixing * dielectric matrix)
  average eigenvalue GAMMA=   0.7879
  2.2846  1.1882  0.6802  0.6802  0.2957  0.2957  0.0907

 Free energy of the ion-electron system (eV)
  ---------------------------------------------------
  alpha Z        PSCENC =       182.16963887
  Ewald energy   TEWEN  =     30367.43665672
  -Hartree energ DENC   =    -36423.35094301
  -exchange      EXHF   =         0.00000000
  -V(xc)+E(xc)   XCENC  =        24.28077510
  PAW double counting   =      7069.61210151    -6865.65926541
  entropy T*S    EENTRO =        -0.01102091
  eigenvalues    EBANDS =      -233.91169833
  atomic energy  EATOM  =      5832.89561447
  Solvation  Ediel_sol  =         0.00000000
  ---------------------------------------------------
  free energy    TOTEN  =       -46.53814099 eV

  energy without entropy =      -46.52712008  energy(sigma->0) =      -46.53446736


--------------------------------------------------------------------------------------------------------




--------------------------------------- Iteration      1(  13)  ---------------------------------------


    POTLOK:  cpu time    0.0047: real time    0.0047
    SETDIJ:  cpu time    0.0021: real time    0.0021
    EDDIAG:  cpu time    0.7791: real time    0.7792
  RMM-DIIS:  cpu time    1.6409: real time    1.6413
    ORTHCH:  cpu time    0.1815: real time    0.1815
       DOS:  cpu time    0.0024: real time    0.0024
    CHARGE:  cpu time    0.0667: real time    0.0667
    MIXING:  cpu time    0.0005: real time    0.0005
    --------------------------------------------
      LOOP:  cpu time    2.6778: real time    2.6783

 eigenvalue-minimisations  :  9664
 total energy-change (2. order) : 0.6532315E-01  (-0.1687408E-01)
 number of electron      80.0000059 magnetization 
 augmentation part       24.8585952 magnetization 

 DIPCOR: dipole corrections for dipol
 direction  3 min pos   167,
 dipolmoment           0.000000      0.000000     -0.009225 electrons x Angstroem
 Tr[quadrupol]      -253.461869

 energy correction for charged system         0.000000 eV
 dipol+quadrupol energy correction           -0.000023 eV
 added-field ion interaction         -0.195510 eV  (added to PSCEN)


 Broyden mixing:
  rms(total) = 0.26747E+00    rms(broyden)= 0.26744E+00
  rms(prec ) = 0.36032E+00
  weight for this iteration     100.00

 eigenvalues of (default mixing * dielectric matrix)
  average eigenvalue GAMMA=   0.7438
  2.2139  1.1707  0.7728  0.7728  0.3548  0.2875  0.2875  0.0907

 Free energy of the ion-electron system (eV)
  ---------------------------------------------------
  alpha Z        PSCENC =       181.97964387
  Ewald energy   TEWEN  =     30367.43665672
  -Hartree energ DENC   =    -36429.14464959
  -exchange      EXHF   =         0.00000000
  -V(xc)+E(xc)   XCENC  =        24.26032009
  PAW double counting   =      7091.40459903    -6887.68324212
  entropy T*S    EENTRO =        -0.01303743
  eigenvalues    EBANDS =      -227.60872290
  atomic energy  EATOM  =      5832.89561447
  Solvation  Ediel_sol  =         0.00000000
  ---------------------------------------------------
  free energy    TOTEN  =       -46.47281785 eV

  energy without entropy =      -46.45978042  energy(sigma->0) =      -46.46847204


--------------------------------------------------------------------------------------------------------




--------------------------------------- Iteration      1(  14)  ---------------------------------------


    POTLOK:  cpu time    0.0047: real time    0.0047
    SETDIJ:  cpu time    0.0021: real time    0.0021
    EDDIAG:  cpu time    0.7797: real time    0.7800
  RMM-DIIS:  cpu time    1.7695: real time    1.7698
    ORTHCH:  cpu time    0.1823: real time    0.1824
       DOS:  cpu time    0.0024: real time    0.0024
    CHARGE:  cpu time    0.0672: real time    0.0672
    MIXING:  cpu time    0.0006: real time    0.0006
    --------------------------------------------
      LOOP:  cpu time    2.8083: real time    2.8090

 eigenvalue-minimisations  : 10294
 total energy-change (2. order) : 0.3060894E-01  (-0.1480393E-02)
 number of electron      80.0000059 magnetization 
 augmentation part       24.8535187 magnetization 

 DIPCOR: dipole corrections for dipol
 direction  3 min pos   162,
 dipolmoment           0.000000      0.000000     -0.007939 electrons x Angstroem
 Tr[quadrupol]      -253.489570

 energy correction for charged system         0.000000 eV
 dipol+quadrupol energy correction           -0.000017 eV
 added-field ion interaction          0.002445 eV  (added to PSCEN)


 Broyden mixing:
  rms(total) = 0.18758E+00    rms(broyden)= 0.18758E+00
  rms(prec ) = 0.25574E+00
  weight for this iteration     100.00

 eigenvalues of (default mixing * dielectric matrix)
  average eigenvalue GAMMA=   0.8857
  2.1251  1.4555  1.4555  0.9086  0.6743  0.6743  0.2935  0.2935  0.0907

 Free energy of the ion-electron system (eV)
  ---------------------------------------------------
  alpha Z        PSCENC =       182.17760472
  Ewald energy   TEWEN  =     30367.43665672
  -Hartree energ DENC   =    -36429.90507954
  -exchange      EXHF   =         0.00000000
  -V(xc)+E(xc)   XCENC  =        24.28175508
  PAW double counting   =      7081.05112008    -6877.16488332
  entropy T*S    EENTRO =        -0.01246926
  eigenvalues    EBANDS =      -227.20252786
  atomic energy  EATOM  =      5832.89561447
  Solvation  Ediel_sol  =         0.00000000
  ---------------------------------------------------
  free energy    TOTEN  =       -46.44220891 eV

  energy without entropy =      -46.42973965  energy(sigma->0) =      -46.43805249


--------------------------------------------------------------------------------------------------------




--------------------------------------- Iteration      1(  15)  ---------------------------------------


    POTLOK:  cpu time    0.0054: real time    0.0055
    SETDIJ:  cpu time    0.0021: real time    0.0021
    EDDIAG:  cpu time    0.7747: real time    0.7749
  RMM-DIIS:  cpu time    1.6595: real time    1.6597
    ORTHCH:  cpu time    0.1824: real time    0.1825
       DOS:  cpu time    0.0024: real time    0.0024
    CHARGE:  cpu time    0.0663: real time    0.0663
    MIXING:  cpu time    0.0006: real time    0.0006
    --------------------------------------------
      LOOP:  cpu time    2.6933: real time    2.6940

 eigenvalue-minimisations  :  9708
 total energy-change (2. order) : 0.3045091E-01  (-0.1158942E-02)
 number of electron      80.0000059 magnetization 
 augmentation part       24.8450104 magnetization 

 DIPCOR: dipole corrections for dipol
 direction  3 min pos   160,
 dipolmoment           0.000000      0.000000      0.004893 electrons x Angstroem
 Tr[quadrupol]      -253.513045

 energy correction for charged system         0.000000 eV
 dipol+quadrupol energy correction           -0.000006 eV
 added-field ion interaction         -0.043593 eV  (added to PSCEN)


 Broyden mixing:
  rms(total) = 0.50967E-01    rms(broyden)= 0.50941E-01
  rms(prec ) = 0.62029E-01
  weight for this iteration     100.00

 eigenvalues of (default mixing * dielectric matrix)
  average eigenvalue GAMMA=   0.9107
  2.2038  1.6387  1.6387  0.7274  0.7274  0.7465  0.7465  0.2934  0.2934  0.0907

 Free energy of the ion-electron system (eV)
  ---------------------------------------------------
  alpha Z        PSCENC =       182.13157722
  Ewald energy   TEWEN  =     30367.43665672
  -Hartree energ DENC   =    -36431.74646381
  -exchange      EXHF   =         0.00000000
  -V(xc)+E(xc)   XCENC  =        24.32152064
  PAW double counting   =      7072.29751357    -6868.20104092
  entropy T*S    EENTRO =        -0.01114806
  eigenvalues    EBANDS =      -225.53598783
  atomic energy  EATOM  =      5832.89561447
  Solvation  Ediel_sol  =         0.00000000
  ---------------------------------------------------
  free energy    TOTEN  =       -46.41175800 eV

  energy without entropy =      -46.40060995  energy(sigma->0) =      -46.40804198


--------------------------------------------------------------------------------------------------------




--------------------------------------- Iteration      1(  16)  ---------------------------------------


    POTLOK:  cpu time    0.0046: real time    0.0046
    SETDIJ:  cpu time    0.0020: real time    0.0020
    EDDIAG:  cpu time    0.7859: real time    0.7859
  RMM-DIIS:  cpu time    1.6007: real time    1.6011
    ORTHCH:  cpu time    0.1822: real time    0.1822
       DOS:  cpu time    0.0024: real time    0.0024
    CHARGE:  cpu time    0.0686: real time    0.0686
    MIXING:  cpu time    0.0007: real time    0.0007
    --------------------------------------------
      LOOP:  cpu time    2.6471: real time    2.6475

 eigenvalue-minimisations  :  9698
 total energy-change (2. order) : 0.1001609E-02  (-0.3088330E-03)
 number of electron      80.0000059 magnetization 
 augmentation part       24.8439393 magnetization 

 DIPCOR: dipole corrections for dipol
 direction  3 min pos   160,
 dipolmoment           0.000000      0.000000     -0.000136 electrons x Angstroem
 Tr[quadrupol]      -253.534155

 energy correction for charged system         0.000000 eV
 dipol+quadrupol energy correction           -0.000000 eV
 added-field ion interaction          0.001212 eV  (added to PSCEN)


 Broyden mixing:
  rms(total) = 0.46221E-01    rms(broyden)= 0.46219E-01
  rms(prec ) = 0.61610E-01
  weight for this iteration     100.00

 eigenvalues of (default mixing * dielectric matrix)
  average eigenvalue GAMMA=   0.8754
  2.2820  1.6282  1.6282  0.7623  0.7623  0.7789  0.7789  0.2934  0.2934  0.0907
  0.3310

 Free energy of the ion-electron system (eV)
  ---------------------------------------------------
  alpha Z        PSCENC =       182.17638935
  Ewald energy   TEWEN  =     30367.43665672
  -Hartree energ DENC   =    -36432.32781502
  -exchange      EXHF   =         0.00000000
  -V(xc)+E(xc)   XCENC  =        24.33301034
  PAW double counting   =      7072.56289681    -6868.44050958
  entropy T*S    EENTRO =        -0.01118599
  eigenvalues    EBANDS =      -225.03581350
  atomic energy  EATOM  =      5832.89561447
  Solvation  Ediel_sol  =         0.00000000
  ---------------------------------------------------
  free energy    TOTEN  =       -46.41075639 eV

  energy without entropy =      -46.39957041  energy(sigma->0) =      -46.40702773


--------------------------------------------------------------------------------------------------------




--------------------------------------- Iteration      1(  17)  ---------------------------------------


    POTLOK:  cpu time    0.0047: real time    0.0047
    SETDIJ:  cpu time    0.0021: real time    0.0021
    EDDIAG:  cpu time    0.7754: real time    0.7756
  RMM-DIIS:  cpu time    1.7056: real time    1.7059
    ORTHCH:  cpu time    0.1820: real time    0.1820
       DOS:  cpu time    0.0024: real time    0.0024
    CHARGE:  cpu time    0.0686: real time    0.0686
    MIXING:  cpu time    0.0007: real time    0.0007
    --------------------------------------------
      LOOP:  cpu time    2.7415: real time    2.7421

 eigenvalue-minimisations  :  9784
 total energy-change (2. order) : 0.4470304E-03  (-0.1043901E-03)
 number of electron      80.0000059 magnetization 
 augmentation part       24.8435027 magnetization 

 DIPCOR: dipole corrections for dipol
 direction  3 min pos   165,
 dipolmoment           0.000000      0.000000     -0.001497 electrons x Angstroem
 Tr[quadrupol]      -253.539397

 energy correction for charged system         0.000000 eV
 dipol+quadrupol energy correction           -0.000001 eV
 added-field ion interaction         -0.018853 eV  (added to PSCEN)


 Broyden mixing:
  rms(total) = 0.41366E-01    rms(broyden)= 0.41365E-01
  rms(prec ) = 0.60360E-01
  weight for this iteration     100.00

 eigenvalues of (default mixing * dielectric matrix)
  average eigenvalue GAMMA=   0.8690
  2.3266  1.6411  1.6411  1.0429  0.8260  0.8260  0.5870  0.5870  0.0907  0.2935
  0.2935  0.2728

 Free energy of the ion-electron system (eV)
  ---------------------------------------------------
  alpha Z        PSCENC =       182.15632386
  Ewald energy   TEWEN  =     30367.43665672
  -Hartree energ DENC   =    -36432.52043660
  -exchange      EXHF   =         0.00000000
  -V(xc)+E(xc)   XCENC  =        24.33615937
  PAW double counting   =      7073.08156739    -6868.95481471
  entropy T*S    EENTRO =        -0.01122564
  eigenvalues    EBANDS =      -224.83015422
  atomic energy  EATOM  =      5832.89561447
  Solvation  Ediel_sol  =         0.00000000
  ---------------------------------------------------
  free energy    TOTEN  =       -46.41030936 eV

  energy without entropy =      -46.39908373  energy(sigma->0) =      -46.40656749


--------------------------------------------------------------------------------------------------------




--------------------------------------- Iteration      1(  18)  ---------------------------------------


    POTLOK:  cpu time    0.0049: real time    0.0049
    SETDIJ:  cpu time    0.0021: real time    0.0021
    EDDIAG:  cpu time    0.7771: real time    0.7774
  RMM-DIIS:  cpu time    1.7124: real time    1.7128
    ORTHCH:  cpu time    0.1828: real time    0.1828
       DOS:  cpu time    0.0024: real time    0.0024
    CHARGE:  cpu time    0.0685: real time    0.0686
    MIXING:  cpu time    0.0007: real time    0.0007
    --------------------------------------------
      LOOP:  cpu time    2.7508: real time    2.7515

 eigenvalue-minimisations  :  9971
 total energy-change (2. order) : 0.9740669E-03  (-0.3268184E-04)
 number of electron      80.0000059 magnetization 
 augmentation part       24.8431670 magnetization 

 DIPCOR: dipole corrections for dipol
 direction  3 min pos   167,
 dipolmoment           0.000000      0.000000     -0.000910 electrons x Angstroem
 Tr[quadrupol]      -253.545117

 energy correction for charged system         0.000000 eV
 dipol+quadrupol energy correction           -0.000000 eV
 added-field ion interaction         -0.019283 eV  (added to PSCEN)


 Broyden mixing:
  rms(total) = 0.28533E-01    rms(broyden)= 0.28533E-01
  rms(prec ) = 0.40558E-01
  weight for this iteration     100.00

 eigenvalues of (default mixing * dielectric matrix)
  average eigenvalue GAMMA=   0.9020
  2.3996  1.9106  1.9106  1.1691  0.8800  0.8800  0.6456  0.6456  0.0907  0.2935
  0.2935  0.3607  0.2471

 Free energy of the ion-electron system (eV)
  ---------------------------------------------------
  alpha Z        PSCENC =       182.15589383
  Ewald energy   TEWEN  =     30367.43665672
  -Hartree energ DENC   =    -36432.69371172
  -exchange      EXHF   =         0.00000000
  -V(xc)+E(xc)   XCENC  =        24.33798734
  PAW double counting   =      7073.68195301    -6869.55343039
  entropy T*S    EENTRO =        -0.01111279
  eigenvalues    EBANDS =      -224.65918575
  atomic energy  EATOM  =      5832.89561447
  Solvation  Ediel_sol  =         0.00000000
  ---------------------------------------------------
  free energy    TOTEN  =       -46.40933530 eV

  energy without entropy =      -46.39822251  energy(sigma->0) =      -46.40563103


--------------------------------------------------------------------------------------------------------




--------------------------------------- Iteration      1(  19)  ---------------------------------------


    POTLOK:  cpu time    0.0047: real time    0.0047
    SETDIJ:  cpu time    0.0021: real time    0.0021
[...]
  augment   417.20400   413.80884   432.48872    -0.00000     0.00000    -0.69480
  Kinetic  1152.12037  1146.62204  1190.94505    -0.00000     0.00000    -1.53348
  Fock        0.00000     0.00000     0.00000     0.00000     0.00000     0.00000
  -------------------------------------------------------------------------------------
  Total      -7.24299    -4.52412     0.10008     0.00000     0.00000    -0.13283
  in kB     -34.74942   -21.70520     0.48015     0.00000     0.00000    -0.63725
  external pressure =      -18.66 kB  Pullay stress =        0.00 kB



--------------------------------------------------------------------------------------------------------



  FREE ENERGIE OF THE ION-ELECTRON SYSTEM (eV)
  ---------------------------------------------------
  free  energy   TOTEN  =       -46.41067634 eV

  energy  without entropy=      -46.39978311  energy(sigma->0) =      -46.40704526
 
 d Force = 0.1237427E-04[ 0.116E-04, 0.132E-04]  d Energy = 0.1301094E-04-0.637E-06
 d Force =-0.3237335E+01[-0.324E+01,-0.324E+01]  d Ewald  =-0.3237335E+01 0.360E-09


--------------------------------------------------------------------------------------------------------


    POTLOK:  cpu time    0.0065: real time    0.0065


--------------------------------------------------------------------------------------------------------


 stress matrix after NEB project (eV)
     -7.24299     -0.00000     -0.13283
      0.00000     -4.52412      0.00000
     -0.13283      0.00000      0.10008
  FORCES: max atom, RMS     0.010559    0.005809
  FORCE total and by dimension    0.016431    0.010559
  Stress total and by dimension    8.542470    7.242986
 Quasi-Newton relaxation of ions (Broydens 2nd method)
  g(Force)  = 0.260E-05   g(Stress)= 0.000E+00

 retain information from N=  1 steps
 eigenvalues of (default step * inverse Hessian matrix)
  average eigenvalue of G=  43.5719
 eigenvalue spectrum of G is 43.5719


--------------------------------------------------------------------------------------------------------


    WAVPRE:  cpu time    0.0014: real time    0.0014
    FEWALD:  cpu time    0.0002: real time    0.0002
    ORTHCH:  cpu time    0.2791: real time    0.2792
     LOOP+:  cpu time   18.0277: real time   18.0424


--------------------------------------- Iteration     12(   1)  ---------------------------------------


    POTLOK:  cpu time    0.0054: real time    0.0054
    SETDIJ:  cpu time    0.0021: real time    0.0021
     EDDAV:  cpu time    6.5986: real time    6.6042
       DOS:  cpu time    0.0024: real time    0.0024
    CHARGE:  cpu time    0.0692: real time    0.0692
    MIXING:  cpu time    0.0003: real time    0.0003
    --------------------------------------------
      LOOP:  cpu time    6.6780: real time    6.6836

 eigenvalue-minimisations  :  9600
 total energy-change (2. order) : 0.5408367E-04  (-0.9870583E-02)
 number of electron      80.0000048 magnetization 
 augmentation part       24.8383088 magnetization 

 DIPCOR: dipole corrections for dipol
 direction  3 min pos   163,
 dipolmoment           0.000000      0.000000      0.000271 electrons x Angstroem
 Tr[quadrupol]      -253.634641

 energy correction for charged system         0.000000 eV
 dipol+quadrupol energy correction           -0.000000 eV
 added-field ion interaction          0.001141 eV  (added to PSCEN)


  free energy =  -0.464106229915E+02  energy without entropy=  -0.463997188764E+02


--------------------------------------------------------------------------------------------------------




--------------------------------------- Iteration     12(   2)  ---------------------------------------


    POTLOK:  cpu time    0.0048: real time    0.0048
    SETDIJ:  cpu time    0.0020: real time    0.0020
    EDDIAG:  cpu time    0.7863: real time    0.7871
  RMM-DIIS:  cpu time    1.5990: real time    1.5997
    ORTHCH:  cpu time    0.1810: real time    0.1815
       DOS:  cpu time    0.0023: real time    0.0023
    CHARGE:  cpu time    0.0661: real time    0.0661
    MIXING:  cpu time    0.0003: real time    0.0003
    --------------------------------------------
      LOOP:  cpu time    2.6418: real time    2.6439

 eigenvalue-minimisations  :  9627
 total energy-change (2. order) :-0.1775954E-03  (-0.1111494E-03)
 number of electron      80.0000048 magnetization 
 augmentation part       24.8383992 magnetization 

 DIPCOR: dipole corrections for dipol
 direction  3 min pos   163,
 dipolmoment           0.000000      0.000000     -0.000459 electrons x Angstroem
 Tr[quadrupol]      -253.636124

 energy correction for charged system         0.000000 eV
 dipol+quadrupol energy correction           -0.000000 eV
 added-field ion interaction         -0.001932 eV  (added to PSCEN)


 eigenvalues of (default mixing * dielectric matrix)
  average eigenvalue GAMMA=   0.2142
  0.2142

  free energy =  -0.464108005869E+02  energy without entropy=  -0.463998929687E+02


--------------------------------------------------------------------------------------------------------




--------------------------------------- Iteration     12(   3)  ---------------------------------------


    POTLOK:  cpu time    0.0046: real time    0.0046
    SETDIJ:  cpu time    0.0020: real time    0.0020
    EDDIAG:  cpu time    0.7799: real time    0.7801
  RMM-DIIS:  cpu time    1.6930: real time    1.6945
    ORTHCH:  cpu time    0.1812: real time    0.1812
       DOS:  cpu time    0.0024: real time    0.0024
    CHARGE:  cpu time    0.0662: real time    0.0662
    MIXING:  cpu time    0.0003: real time    0.0003
    --------------------------------------------
      LOOP:  cpu time    2.7297: real time    2.7314

 eigenvalue-minimisations  :  9909
 total energy-change (2. order) : 0.2861267E-05  (-0.9956110E-05)
 number of electron      80.0000048 magnetization 
 augmentation part       24.8385721 magnetization 

 DIPCOR: dipole corrections for dipol
 direction  3 min pos   166,
 dipolmoment           0.000000      0.000000      0.001041 electrons x Angstroem
 Tr[quadrupol]      -253.636135

 energy correction for charged system         0.000000 eV
 dipol+quadrupol energy correction           -0.000000 eV
 added-field ion interaction          0.017810 eV  (added to PSCEN)


 eigenvalues of (default mixing * dielectric matrix)
  average eigenvalue GAMMA=   0.4753
  0.8805  0.0702

  free energy =  -0.464107977256E+02  energy without entropy=  -0.463998771990E+02


--------------------------------------------------------------------------------------------------------




--------------------------------------- Iteration     12(   4)  ---------------------------------------


    POTLOK:  cpu time    0.0046: real time    0.0046
    SETDIJ:  cpu time    0.0021: real time    0.0021
    EDDIAG:  cpu time    0.7772: real time    0.7779
  RMM-DIIS:  cpu time    1.5786: real time    1.5799
    ORTHCH:  cpu time    0.1812: real time    0.1814
       DOS:  cpu time    0.0023: real time    0.0023
    CHARGE:  cpu time    0.0661: real time    0.0661
    MIXING:  cpu time    0.0003: real time    0.0003
    --------------------------------------------
      LOOP:  cpu time    2.6123: real time    2.6146

 eigenvalue-minimisations  :  9618
 total energy-change (2. order) : 0.4915007E-04  (-0.4822068E-05)
 number of electron      80.0000048 magnetization 
 augmentation part       24.8389978 magnetization 

 DIPCOR: dipole corrections for dipol
 direction  3 min pos   164,
 dipolmoment           0.000000      0.000000      0.000093 electrons x Angstroem
 Tr[quadrupol]      -253.631301

 energy correction for charged system         0.000000 eV
 dipol+quadrupol energy correction           -0.000000 eV
 added-field ion interaction          0.000796 eV  (added to PSCEN)


 eigenvalues of (default mixing * dielectric matrix)
  average eigenvalue GAMMA=   0.4945
  1.2295  0.1896  0.0643

  free energy =  -0.464107485756E+02  energy without entropy=  -0.463998638429E+02


--------------------------------------------------------------------------------------------------------




--------------------------------------- Iteration     12(   5)  ---------------------------------------


    POTLOK:  cpu time    0.0046: real time    0.0047
    SETDIJ:  cpu time    0.0021: real time    0.0021
    EDDIAG:  cpu time    0.7730: real time    0.7738
  RMM-DIIS:  cpu time    1.5952: real time    1.5959
    ORTHCH:  cpu time    0.1809: real time    0.1818
       DOS:  cpu time    0.0023: real time    0.0023
    CHARGE:  cpu time    0.0658: real time    0.0658
    MIXING:  cpu time    0.0004: real time    0.0004
    --------------------------------------------
      LOOP:  cpu time    2.6242: real time    2.6267

 eigenvalue-minimisations  :  9612
 total energy-change (2. order) : 0.2916332E-04  (-0.1308834E-05)
 number of electron      80.0000048 magnetization 
 augmentation part       24.8387561 magnetization 

 DIPCOR: dipole corrections for dipol
 direction  3 min pos   164,
 dipolmoment           0.000000      0.000000      0.000229 electrons x Angstroem
 Tr[quadrupol]      -253.633352

 energy correction for charged system         0.000000 eV
 dipol+quadrupol energy correction           -0.000000 eV
 added-field ion interaction          0.001954 eV  (added to PSCEN)


 eigenvalues of (default mixing * dielectric matrix)
  average eigenvalue GAMMA=   0.9432
  2.5331  0.9508  0.0656  0.2235

  free energy =  -0.464107194122E+02  energy without entropy=  -0.463998245160E+02


--------------------------------------------------------------------------------------------------------




--------------------------------------- Iteration     12(   6)  ---------------------------------------


    POTLOK:  cpu time    0.0047: real time    0.0047
    SETDIJ:  cpu time    0.0021: real time    0.0021
    EDDIAG:  cpu time    0.7734: real time    0.7736
  RMM-DIIS:  cpu time    1.5684: real time    1.5698
    ORTHCH:  cpu time    0.1810: real time    0.1810
       DOS:  cpu time    0.0024: real time    0.0024
    CHARGE:  cpu time    0.0657: real time    0.0657
    MIXING:  cpu time    0.0004: real time    0.0004
    --------------------------------------------
      LOOP:  cpu time    2.5980: real time    2.5996

 eigenvalue-minimisations  :  9590
 total energy-change (2. order) :-0.1340280E-05  (-0.1605335E-05)
 number of electron      80.0000048 magnetization 
 augmentation part       24.8385978 magnetization 

 DIPCOR: dipole corrections for dipol
 direction  3 min pos   161,
 dipolmoment           0.000000      0.000000      0.000187 electrons x Angstroem
 Tr[quadrupol]      -253.633911

 energy correction for charged system         0.000000 eV
 dipol+quadrupol energy correction           -0.000000 eV
 added-field ion interaction         -0.000819 eV  (added to PSCEN)


 eigenvalues of (default mixing * dielectric matrix)
  average eigenvalue GAMMA=   0.8782
  2.5646  0.7665  0.7665  0.0655  0.2276

  free energy =  -0.464107207525E+02  energy without entropy=  -0.463998244129E+02


--------------------------------------------------------------------------------------------------------




--------------------------------------- Iteration     12(   7)  ---------------------------------------


    POTLOK:  cpu time    0.0046: real time    0.0046
    SETDIJ:  cpu time    0.0021: real time    0.0021
    EDDIAG:  cpu time    0.7747: real time    0.7754
  RMM-DIIS:  cpu time    1.0390: real time    1.0398
    ORTHCH:  cpu time    0.1827: real time    0.1827
       DOS:  cpu time    0.0024: real time    0.0024
    CHARGE:  cpu time    0.0662: real time    0.0662
    MIXING:  cpu time    0.0004: real time    0.0004
    --------------------------------------------
      LOOP:  cpu time    2.0722: real time    2.0737

 eigenvalue-minimisations  :  5310
 total energy-change (2. order) : 0.1566322E-05  (-0.1669577E-06)
 number of electron      80.0000048 magnetization 
 augmentation part       24.8386021 magnetization 

 DIPCOR: dipole corrections for dipol
 direction  3 min pos   160,
 dipolmoment           0.000000      0.000000      0.000192 electrons x Angstroem
 Tr[quadrupol]      -253.634048

 energy correction for charged system         0.000000 eV
 dipol+quadrupol energy correction           -0.000000 eV
 added-field ion interaction         -0.001666 eV  (added to PSCEN)


 eigenvalues of (default mixing * dielectric matrix)
  average eigenvalue GAMMA=   0.8367
  2.3894  1.0220  1.0220  0.0655  0.2263  0.2951

  free energy =  -0.464107191862E+02  energy without entropy=  -0.463998224145E+02


--------------------------------------------------------------------------------------------------------




--------------------------------------- Iteration     12(   8)  ---------------------------------------


    POTLOK:  cpu time    0.0046: real time    0.0046
    SETDIJ:  cpu time    0.0021: real time    0.0021
    EDDIAG:  cpu time    0.7791: real time    0.7803
  RMM-DIIS:  cpu time    1.0220: real time    1.0227
    ORTHCH:  cpu time    0.1816: real time    0.1816
       DOS:  cpu time    0.0024: real time    0.0024
    CHARGE:  cpu time    0.0661: real time    0.0661
    MIXING:  cpu time    0.0004: real time    0.0004
    --------------------------------------------
      LOOP:  cpu time    2.0583: real time    2.0603

 eigenvalue-minimisations  :  5044
 total energy-change (2. order) : 0.1690090E-05  (-0.7756452E-07)
 number of electron      80.0000048 magnetization 
 augmentation part       24.8386195 magnetization 

 DIPCOR: dipole corrections for dipol
 direction  3 min pos   162,
 dipolmoment           0.000000      0.000000      0.000318 electrons x Angstroem
 Tr[quadrupol]      -253.634204

 energy correction for charged system         0.000000 eV
 dipol+quadrupol energy correction           -0.000000 eV
 added-field ion interaction         -0.000028 eV  (added to PSCEN)


 eigenvalues of (default mixing * dielectric matrix)
  average eigenvalue GAMMA=   0.7999
  2.3722  1.0743  1.0743  0.0655  0.5024  0.2266  0.2837

  free energy =  -0.464107174961E+02  energy without entropy=  -0.463998196862E+02


--------------------------------------------------------------------------------------------------------




--------------------------------------- Iteration     12(   9)  ---------------------------------------


    POTLOK:  cpu time    0.0052: real time    0.0052
    SETDIJ:  cpu time    0.0021: real time    0.0021
    EDDIAG:  cpu time    0.7781: real time    0.7789
  RMM-DIIS:  cpu time    0.9777: real time    0.9785
    ORTHCH:  cpu time    0.1799: real time    0.1799
       DOS:  cpu time    0.0023: real time    0.0023
    --------------------------------------------
      LOOP:  cpu time    1.9453: real time    1.9469

 eigenvalue-minimisations  :  4854
 total energy-change (2. order) :-0.9499763E-07  (-0.1986764E-07)
 number of electron      80.0000048 magnetization 
 augmentation part       24.8386195 magnetization 

 DIPCOR: dipole corrections for dipol
 direction  3 min pos   163,
 dipolmoment           0.000000      0.000000      0.000313 electrons x Angstroem
 Tr[quadrupol]      -253.634313

 energy correction for charged system         0.000000 eV
 dipol+quadrupol energy correction           -0.000000 eV
 added-field ion interaction          0.001319 eV  (added to PSCEN)


  free energy =  -0.464107175911E+02  energy without entropy=  -0.463998197441E+02


--------------------------------------------------------------------------------------------------------




------------------------ aborting loop because EDIFF is reached ----------------------------------------


    CHARGE:  cpu time    0.0660: real time    0.0666
    FORLOC:  cpu time    0.0004: real time    0.0004
    FORNL :  cpu time    0.6460: real time    0.6462
    STRESS:  cpu time    1.2811: real time    1.2819
    FORCOR:  cpu time    0.0045: real time    0.0045
    FORHAR:  cpu time    0.0015: real time    0.0015
    MIXING:  cpu time    0.0005: real time    0.0005
    OFIELD:  cpu time    0.0000: real time    0.0000

  FORCE on cell =-STRESS in cart. coord.  units (eV):
  Direction    XX          YY          ZZ          XY          YZ          ZX
  --------------------------------------------------------------------------------------
  Alpha Z   182.17518   182.17518   182.17518
  Ewald   34842.64522 34885.36227-39309.32144     0.00000    -0.00000     8.18290
  Hartree 36134.55501 36146.58192-35795.03259     0.00000     0.00000     2.49662
  E(xc)    -354.00532  -353.87443  -356.52288     0.00000     0.00000     0.05898
  Local  -72418.81771-72466.90504 73626.70771    -0.00000    -0.00000    -8.94201
  n-local    36.85653    41.68340    28.81717     0.00000     0.00000     0.30483
  augment   417.21521   413.81892   432.44466    -0.00000     0.00000    -0.69666
  Kinetic  1152.17711  1146.67436  1190.89583    -0.00000    -0.00000    -1.53638
  Fock        0.00000     0.00000     0.00000     0.00000     0.00000     0.00000
  -------------------------------------------------------------------------------------
  Total      -7.19877    -4.48342     0.16366     0.00000    -0.00000    -0.13171
  in kB     -34.53728   -21.50994     0.78516     0.00000    -0.00000    -0.63192
  external pressure =      -18.42 kB  Pullay stress =        0.00 kB



--------------------------------------------------------------------------------------------------------



  FREE ENERGIE OF THE ION-ELECTRON SYSTEM (eV)
  ---------------------------------------------------
  free  energy   TOTEN  =       -46.41071759 eV

  energy  without entropy=      -46.39981974  energy(sigma->0) =      -46.40708498
 
 d Force = 0.3739614E-04[ 0.177E-04, 0.571E-04]  d Energy = 0.4125172E-04-0.386E-05
 d Force =-0.1552874E+02[-0.155E+02,-0.155E+02]  d Ewald  =-0.1552874E+02 0.480E-07


--------------------------------------------------------------------------------------------------------


    POTLOK:  cpu time    0.0072: real time    0.0081


--------------------------------------------------------------------------------------------------------


 stress matrix after NEB project (eV)
     -7.19877      0.00000     -0.13171
      0.00000     -4.48342     -0.00000
     -0.13171     -0.00000      0.16366
  FORCES: max atom, RMS     0.007263    0.003656
  FORCE total and by dimension    0.010342    0.007263
  Stress total and by dimension    8.484385    7.198768
 Quasi-Newton relaxation of ions (Broydens 2nd method)
  g(Force)  = 0.103E-05   g(Stress)= 0.000E+00

 retain information from N=  1 steps
 eigenvalues of (default step * inverse Hessian matrix)
  average eigenvalue of G=  46.0737
 eigenvalue spectrum of G is 46.0737


--------------------------------------------------------------------------------------------------------


  
 reached required accuracy - stopping structural energy minimisation
     LOOP+:  cpu time   27.9714: real time   27.9946
    4ORBIT:  cpu time    0.0000: real time    0.0000

 total amount of memory used by VASP MPI-rank0    64253. kBytes
=======================================================================

   base      :      30000. kBytes
   nonl-proj :      22663. kBytes
   fftplans  :        577. kBytes
   grid      :        768. kBytes
   one-center:         31. kBytes
   wavefun   :      10214. kBytes
 
  
  
 General timing and accounting informations for this job:
 ========================================================
  
                  Total CPU time used (sec):      382.726
                            User time (sec):      292.942
                          System time (sec):       89.784
                         Elapsed time (sec):      382.985
  
                   Maximum memory used (kb):      176728.
                   Average memory used (kb):           0.
  
                          Minor page faults:       140419
                          Major page faults:            0
                 Voluntary context switches:     28527437
