  66  66   0   0
  0.4130481E+02  0.9717792E-09  0.1122114E-08  0.2500000E-08  0.1500000E-16
  1.000000000000000E-004
  CAR 
 Pt111 O2 adsorption system              
      6.66058412    -20.93290526  301      0.33204237      1.00000000
    -20.933  0.0000E+00  0.0000E+00
    -20.841  0.0000E+00  0.0000E+00
    -20.749  0.0000E+00  0.0000E+00
    -20.657  0.0000E+00  0.0000E+00
    -20.565  0.0000E+00  0.0000E+00
    -20.473  0.0000E+00  0.0000E+00
    -20.381  0.0000E+00  0.0000E+00
    -20.289  0.0000E+00  0.0000E+00
    -20.197  0.2982E-14  0.2743E-15
    -20.105  0.2139E-10  0.1968E-11
    -20.013  0.2941E-07  0.2707E-08
    -19.921  0.7907E-05  0.7300E-06
    -19.829  0.4287E-03  0.4016E-04
    -19.737  0.4912E-02  0.4919E-03
    -19.645  0.1254E-01  0.1645E-02
    -19.553  0.7346E-02  0.2321E-02
    -19.461  0.9704E-03  0.2410E-02
    -19.369  0.2749E-04  0.2413E-02
    -19.277  0.1588E-06  0.2413E-02
    -19.185  0.1807E-09  0.2413E-02
    -19.093  0.3959E-13  0.2413E-02
    -19.001  0.0000E+00  0.2413E-02
    -18.909  0.0000E+00  0.2413E-02
    -18.817  0.0000E+00  0.2413E-02
    -18.725  0.0000E+00  0.2413E-02
    -18.633  0.0000E+00  0.2413E-02
    -18.541  0.0000E+00  0.2413E-02
    -18.449  0.0000E+00  0.2413E-02
    -18.358  0.0000E+00  0.2413E-02
    -18.266  0.0000E+00  0.2413E-02
    -18.174  0.0000E+00  0.2413E-02
    -18.082  0.0000E+00  0.2413E-02
    -17.990  0.0000E+00  0.2413E-02
    -17.898  0.0000E+00  0.2413E-02
    -17.806  0.0000E+00  0.2413E-02
    -17.714  0.0000E+00  0.2413E-02
    -17.622  0.0000E+00  0.2413E-02
    -17.530  0.7382E-15  0.2413E-02
    -17.438  0.6705E-11  0.2413E-02
    -17.346  0.1165E-07  0.2413E-02
    -17.254  0.3942E-05  0.2413E-02
    -17.162  0.2676E-03  0.2438E-02
    -17.070  0.3811E-02  0.2788E-02
    -16.978  0.1201E-01  0.3892E-02
    -16.886  0.8670E-02  0.4690E-02
    -16.794  0.1419E-02  0.4820E-02
    -16.702  0.5019E-04  0.4825E-02
    -16.610  0.3644E-06  0.4825E-02
    -16.518  0.5230E-09  0.4825E-02
    -16.426  0.1449E-12  0.4825E-02
    -16.334  0.5824E-17  0.4825E-02
    -16.242  0.0000E+00  0.4825E-02
    -16.150  0.0000E+00  0.4825E-02
    -16.058  0.0000E+00  0.4825E-02
    -15.966  0.0000E+00  0.4825E-02
    -15.874  0.0000E+00  0.4825E-02
    -15.782  0.0000E+00  0.4825E-02
    -15.690  0.0000E+00  0.4825E-02
    -15.598  0.0000E+00  0.4825E-02
    -15.506  0.0000E+00  0.4825E-02
    -15.414  0.0000E+00  0.4825E-02
    -15.322  0.0000E+00  0.4825E-02
    -15.230  0.0000E+00  0.4825E-02
    -15.138  0.0000E+00  0.4825E-02
    -15.046  0.0000E+00  0.4825E-02
    -14.954  0.0000E+00  0.4825E-02
    -14.862  0.0000E+00  0.4825E-02
    -14.770  0.0000E+00  0.4825E-02
    -14.678  0.0000E+00  0.4825E-02
    -14.586  0.0000E+00  0.4825E-02
    -14.494  0.0000E+00  0.4825E-02
    -14.402  0.0000E+00  0.4825E-02
    -14.310  0.0000E+00  0.4825E-02
    -14.218  0.0000E+00  0.4825E-02
    -14.127  0.0000E+00  0.4825E-02
    -14.035  0.0000E+00  0.4825E-02
    -13.943  0.0000E+00  0.4825E-02
    -13.851  0.0000E+00  0.4825E-02
    -13.759  0.0000E+00  0.4825E-02
    -13.667  0.0000E+00  0.4825E-02
    -13.575  0.0000E+00  0.4825E-02
    -13.483  0.0000E+00  0.4825E-02
    -13.391  0.0000E+00  0.4825E-02
    -13.299  0.0000E+00  0.4825E-02
    -13.207  0.0000E+00  0.4825E-02
    -13.115  0.0000E+00  0.4825E-02
    -13.023  0.0000E+00  0.4825E-02
    -12.931  0.0000E+00  0.4825E-02
    -12.839  0.0000E+00  0.4825E-02
    -12.747  0.0000E+00  0.4825E-02
    -12.655  0.0000E+00  0.4825E-02
    -12.563  0.0000E+00  0.4825E-02
    -12.471  0.0000E+00  0.4825E-02
    -12.379  0.0000E+00  0.4825E-02
    -12.287  0.0000E+00  0.4825E-02
    -12.195  0.0000E+00  0.4825E-02
    -12.103  0.0000E+00  0.4825E-02
    -12.011  0.0000E+00  0.4825E-02
    -11.919  0.0000E+00  0.4825E-02
    -11.827  0.0000E+00  0.4825E-02
    -11.735  0.0000E+00  0.4825E-02
    -11.643  0.0000E+00  0.4825E-02
    -11.551  0.0000E+00  0.4825E-02
    -11.459  0.0000E+00  0.4825E-02
    -11.367  0.0000E+00  0.4825E-02
    -11.275  0.0000E+00  0.4825E-02
    -11.183  0.0000E+00  0.4825E-02
    -11.091  0.0000E+00  0.4825E-02
    -10.999  0.0000E+00  0.4825E-02
    -10.907  0.0000E+00  0.4825E-02
    -10.815  0.0000E+00  0.4825E-02
    -10.723  0.0000E+00  0.4825E-02
    -10.631  0.0000E+00  0.4825E-02
    -10.539  0.0000E+00  0.4825E-02
    -10.447  0.0000E+00  0.4825E-02
    -10.355  0.0000E+00  0.4825E-02
    -10.263  0.0000E+00  0.4825E-02
    -10.171  0.0000E+00  0.4825E-02
    -10.079  0.0000E+00  0.4825E-02
     -9.987  0.0000E+00  0.4825E-02
     -9.896  0.0000E+00  0.4825E-02
     -9.804  0.0000E+00  0.4825E-02
     -9.712  0.2155E-15  0.4825E-02
     -9.620  0.2399E-11  0.4825E-02
     -9.528  0.5099E-08  0.4825E-02
     -9.436  0.2106E-05  0.4825E-02
     -9.344  0.1737E-03  0.4841E-02
     -9.252  0.2988E-02  0.5116E-02
     -9.160  0.1130E-01  0.6155E-02
     -9.068  0.9766E-02  0.7053E-02
     -8.976  0.1921E-02  0.7230E-02
     -8.884  0.8225E-04  0.7238E-02
     -8.792  0.7268E-06  0.7238E-02
     -8.700  0.1274E-08  0.7238E-02
     -8.608  0.4324E-12  0.7238E-02
     -8.516  0.2912E-16  0.7238E-02
     -8.424  0.0000E+00  0.7238E-02
     -8.332  0.2542E-14  0.7238E-02
     -8.240  0.1874E-10  0.7238E-02
     -8.148  0.2650E-07  0.7238E-02
     -8.056  0.7348E-05  0.7238E-02
     -7.964  0.4184E-03  0.7277E-02
     -7.872  0.5478E-02  0.7781E-02
     -7.780  0.2132E-01  0.9741E-02
     -7.688  0.3219E-01  0.1270E-01
     -7.596  0.1704E-01  0.1427E-01
     -7.504  0.5808E-02  0.1480E-01
     -7.412  0.1765E-01  0.1643E-01
     -7.320  0.2285E-01  0.1853E-01
     -7.228  0.7727E-02  0.1924E-01
     -7.136  0.6476E-03  0.1930E-01
     -7.044  0.1295E-04  0.1930E-01
     -6.952  0.7120E-04  0.1931E-01
     -6.860  0.1983E-02  0.1949E-01
     -6.768  0.1351E-01  0.2073E-01
     -6.676  0.2750E-01  0.2326E-01
     -6.584  0.2871E-01  0.2590E-01
     -6.492  0.5253E-01  0.3073E-01
     -6.400  0.1052E+00  0.4041E-01
     -6.308  0.1014E+00  0.4973E-01
     -6.216  0.7397E-01  0.5654E-01
     -6.124  0.3529E-01  0.5978E-01
     -6.032  0.6192E-02  0.6035E-01
     -5.940  0.7682E-02  0.6106E-01
     -5.848  0.3331E-01  0.6412E-01
     -5.756  0.8023E-01  0.7150E-01
     -5.665  0.8832E-01  0.7963E-01
     -5.573  0.8013E-01  0.8700E-01
     -5.481  0.1064E+00  0.9679E-01
     -5.389  0.1345E+00  0.1092E+00
     -5.297  0.1497E+00  0.1229E+00
     -5.205  0.1235E+00  0.1343E+00
     -5.113  0.8236E-01  0.1419E+00
     -5.021  0.7763E-01  0.1490E+00
     -4.929  0.8002E-01  0.1564E+00
     -4.837  0.5437E-01  0.1614E+00
     -4.745  0.4454E-01  0.1655E+00
     -4.653  0.8029E-01  0.1728E+00
     -4.561  0.1357E+00  0.1853E+00
     -4.469  0.1382E+00  0.1980E+00
     -4.377  0.8087E-01  0.2055E+00
     -4.285  0.7442E-01  0.2123E+00
     -4.193  0.1105E+00  0.2225E+00
     -4.101  0.1372E+00  0.2351E+00
     -4.009  0.1438E+00  0.2483E+00
     -3.917  0.1273E+00  0.2600E+00
     -3.825  0.8365E-01  0.2677E+00
     -3.733  0.5462E-01  0.2728E+00
     -3.641  0.8711E-01  0.2808E+00
     -3.549  0.1136E+00  0.2912E+00
     -3.457  0.1090E+00  0.3012E+00
     -3.365  0.1225E+00  0.3125E+00
     -3.273  0.1658E+00  0.3278E+00
     -3.181  0.2016E+00  0.3463E+00
     -3.089  0.1764E+00  0.3625E+00
     -2.997  0.1281E+00  0.3743E+00
     -2.905  0.1232E+00  0.3856E+00
     -2.813  0.1812E+00  0.4023E+00
     -2.721  0.1880E+00  0.4196E+00
     -2.629  0.1695E+00  0.4352E+00
     -2.537  0.1254E+00  0.4467E+00
     -2.445  0.1207E+00  0.4578E+00
     -2.353  0.1547E+00  0.4720E+00
     -2.261  0.1303E+00  0.4840E+00
     -2.169  0.8298E-01  0.4917E+00
     -2.077  0.6797E-01  0.4979E+00
     -1.985  0.7357E-01  0.5047E+00
     -1.893  0.1133E+00  0.5151E+00
     -1.801  0.1637E+00  0.5302E+00
     -1.709  0.1670E+00  0.5455E+00
     -1.617  0.1093E+00  0.5556E+00
     -1.525  0.1010E+00  0.5649E+00
     -1.434  0.1085E+00  0.5749E+00
     -1.342  0.9343E-01  0.5834E+00
     -1.250  0.1019E+00  0.5928E+00
     -1.158  0.1248E+00  0.6043E+00
     -1.066  0.1213E+00  0.6154E+00
     -0.974  0.1044E+00  0.6250E+00
     -0.882  0.1193E+00  0.6360E+00
     -0.790  0.1390E+00  0.6488E+00
     -0.698  0.1229E+00  0.6601E+00
     -0.606  0.8090E-01  0.6675E+00
     -0.514  0.6219E-01  0.6733E+00
     -0.422  0.6767E-01  0.6795E+00
     -0.330  0.9385E-01  0.6881E+00
     -0.238  0.1158E+00  0.6988E+00
     -0.146  0.1178E+00  0.7096E+00
     -0.054  0.9452E-01  0.7183E+00
      0.038  0.1025E+00  0.7277E+00
      0.130  0.1482E+00  0.7414E+00
      0.222  0.1935E+00  0.7592E+00
      0.314  0.2479E+00  0.7820E+00
      0.406  0.2150E+00  0.8017E+00
      0.498  0.1235E+00  0.8131E+00
      0.590  0.9992E-01  0.8223E+00
      0.682  0.9926E-01  0.8314E+00
      0.774  0.8980E-01  0.8397E+00
      0.866  0.5580E-01  0.8448E+00
      0.958  0.1933E-01  0.8466E+00
      1.050  0.7118E-02  0.8472E+00
      1.142  0.1861E-01  0.8490E+00
      1.234  0.3628E-01  0.8523E+00
      1.326  0.3850E-01  0.8558E+00
      1.418  0.2289E-01  0.8579E+00
      1.510  0.1304E-01  0.8591E+00
      1.602  0.2108E-01  0.8611E+00
      1.694  0.2235E-01  0.8631E+00
      1.786  0.6481E-02  0.8637E+00
      1.878  0.7188E-02  0.8644E+00
      1.970  0.1887E-01  0.8661E+00
      2.062  0.2502E-01  0.8684E+00
      2.154  0.2978E-01  0.8712E+00
      2.246  0.1976E-01  0.8730E+00
      2.338  0.4245E-02  0.8734E+00
      2.430  0.6656E-02  0.8740E+00
      2.522  0.2499E-01  0.8763E+00
      2.614  0.4570E-01  0.8805E+00
      2.706  0.5567E-01  0.8856E+00
      2.797  0.4720E-01  0.8899E+00
      2.889  0.3137E-01  0.8928E+00
      2.981  0.3445E-01  0.8960E+00
      3.073  0.3700E-01  0.8994E+00
      3.165  0.2433E-01  0.9016E+00
      3.257  0.2774E-01  0.9042E+00
      3.349  0.3112E-01  0.9071E+00
      3.441  0.1992E-01  0.9089E+00
      3.533  0.6337E-02  0.9095E+00
      3.625  0.1023E-02  0.9096E+00
      3.717  0.7049E-02  0.9102E+00
      3.809  0.3186E-01  0.9131E+00
      3.901  0.4452E-01  0.9172E+00
      3.993  0.3000E-01  0.9200E+00
      4.085  0.2693E-01  0.9225E+00
      4.177  0.1475E-01  0.9238E+00
      4.269  0.8325E-02  0.9246E+00
      4.361  0.2445E-01  0.9268E+00
      4.453  0.3286E-01  0.9299E+00
      4.545  0.3231E-01  0.9328E+00
      4.637  0.2737E-01  0.9354E+00
      4.729  0.2360E-01  0.9375E+00
      4.821  0.9262E-02  0.9384E+00
      4.913  0.1136E-02  0.9385E+00
      5.005  0.2537E-02  0.9387E+00
      5.097  0.1383E-01  0.9400E+00
      5.189  0.2251E-01  0.9421E+00
      5.281  0.1268E-01  0.9432E+00
      5.373  0.9104E-02  0.9441E+00
      5.465  0.1260E-01  0.9452E+00
      5.557  0.4912E-02  0.9457E+00
      5.649  0.4287E-03  0.9457E+00
      5.741  0.7907E-05  0.9457E+00
      5.833  0.2941E-07  0.9457E+00
      5.925  0.2139E-10  0.9457E+00
      6.017  0.2982E-14  0.9457E+00
      6.109  0.0000E+00  0.9457E+00
      6.201  0.0000E+00  0.9457E+00
      6.293  0.0000E+00  0.9457E+00
      6.385  0.0000E+00  0.9457E+00
      6.477  0.0000E+00  0.9457E+00
      6.569  0.0000E+00  0.9457E+00
      6.661  0.0000E+00  0.9457E+00
