   66   66  829    1
  0.4130481E+02  0.9717792E-09  0.1122114E-08  0.2500000E-08  0.1500000E-16
  1.000000000000000E-004
  CAR 
 Pt111 O2 adsorption system              
    652      1    392
 
  0.0000000E+00  0.0000000E+00  0.0000000E+00  0.1000000E+01
    1      -19.678656   1.000000
    2      -16.998221   1.000000
    3       -9.168791   1.000000
    4       -7.811946   1.000000
    5       -7.717290   1.000000
    6       -7.714195   1.000000
    7       -7.416771   1.000000
    8       -7.371452   1.000000
    9       -6.754310   1.000000
   10       -6.698585   1.000000
   11       -6.602094   1.000000
   12       -6.480539   1.000000
   13       -6.468562   1.000000
   14       -6.445262   1.000000
   15       -6.442816   1.000000
   16       -6.431135   1.000000
   17       -6.409725   1.000000
   18       -6.389568   1.000000
   19       -6.384030   1.000000
   20       -6.374725   1.000000
   21       -6.298656   1.000000
   22       -6.284712   1.000000
   23       -6.249370   1.000000
   24       -6.228940   1.000000
   25       -6.217833   1.000000
   26       -5.891695   1.000000
   27       -5.813974   1.000000
   28       -5.775980   1.000000
   29       -5.762397   1.000000
   30       -5.758340   1.000000
   31       -5.745057   1.000000
   32       -5.740187   1.000000
   33       -5.718992   1.000000
   34       -5.649571   1.000000
   35       -5.580595   1.000000
   36       -5.556944   1.000000
   37       -5.553248   1.000000
   38       -5.544515   1.000000
   39       -5.535048   1.000000
   40       -5.496965   1.000000
   41       -5.445625   1.000000
   42       -5.432985   1.000000
   43       -5.418090   1.000000
   44       -5.412424   1.000000
   45       -5.407936   1.000000
   46       -5.396614   1.000000
   47       -5.354902   1.000000
   48       -5.346731   1.000000
   49       -5.336148   1.000000
   50       -5.332078   1.000000
   51       -5.309750   1.000000
   52       -5.296519   1.000000
   53       -5.281428   1.000000
   54       -5.255747   1.000000
   55       -5.239749   1.000000
   56       -5.218878   1.000000
   57       -5.198325   1.000000
   58       -5.187217   1.000000
   59       -5.125665   1.000000
   60       -5.066535   1.000000
   61       -5.040170   1.000000
   62       -5.019706   1.000000
   63       -5.009567   1.000000
   64       -4.984909   1.000000
   65       -4.954686   1.000000
   66       -4.900823   1.000000
   67       -4.893938   1.000000
   68       -4.796550   1.000000
   69       -4.705334   1.000000
   70       -4.693519   1.000000
   71       -4.668015   1.000000
   72       -4.660881   1.000000
   73       -4.597107   1.000000
   74       -4.594276   1.000000
   75       -4.581510   1.000000
   76       -4.570256   1.000000
   77       -4.557559   1.000000
   78       -4.553581   1.000000
   79       -4.548868   1.000000
   80       -4.528957   1.000000
   81       -4.518178   1.000000
   82       -4.508157   1.000000
   83       -4.491089   1.000000
   84       -4.458740   1.000000
   85       -4.418907   1.000000
   86       -4.351457   1.000000
   87       -4.294852   1.000000
   88       -4.285307   1.000000
   89       -4.283925   1.000000
   90       -4.235197   1.000000
   91       -4.207451   1.000000
   92       -4.187916   1.000000
   93       -4.177560   1.000000
   94       -4.169988   1.000000
   95       -4.165617   1.000000
   96       -4.146023   1.000000
   97       -4.110370   1.000000
   98       -4.094604   1.000000
   99       -4.066875   1.000000
  100       -4.061677   1.000000
  101       -4.049783   1.000000
  102       -4.046095   1.000000
  103       -4.030487   1.000000
  104       -3.989438   1.000000
  105       -3.980445   1.000000
  106       -3.976476   1.000000
  107       -3.945713   1.000000
  108       -3.941248   1.000000
  109       -3.917375   1.000000
  110       -3.889291   1.000000
  111       -3.861718   1.000000
  112       -3.834381   1.000000
  113       -3.732966   1.000000
  114       -3.678341   1.000000
  115       -3.654349   1.000000
  116       -3.647426   1.000000
  117       -3.631601   1.000000
  118       -3.628951   1.000000
  119       -3.618290   1.000000
  120       -3.578570   1.000000
  121       -3.550508   1.000000
  122       -3.531177   1.000000
  123       -3.514660   1.000000
  124       -3.494488   1.000000
  125       -3.449137   1.000000
  126       -3.436353   1.000000
  127       -3.427866   1.000000
  128       -3.392477   1.000000
  129       -3.380932   1.000000
  130       -3.347535   1.000000
  131       -3.343360   1.000000
  132       -3.320235   1.000000
  133       -3.308421   1.000000
  134       -3.285000   1.000000
  135       -3.282312   1.000000
  136       -3.264658   1.000000
  137       -3.260863   1.000000
  138       -3.252169   1.000000
  139       -3.233702   1.000000
  140       -3.218999   1.000000
  141       -3.216207   1.000000
  142       -3.205001   1.000000
  143       -3.198334   1.000000
  144       -3.198115   1.000000
  145       -3.194383   1.000000
  146       -3.165679   1.000000
  147       -3.147859   1.000000
  148       -3.131597   1.000000
  149       -3.126319   1.000000
  150       -3.111560   1.000000
  151       -3.089783   1.000000
  152       -3.069945   1.000000
  153       -3.057249   1.000000
  154       -3.055434   1.000000
  155       -3.027466   1.000000
  156       -3.015829   1.000000
  157       -2.947519   1.000000
  158       -2.923668   1.000000
  159       -2.907515   1.000000
  160       -2.876009   1.000000
  161       -2.865355   1.000000
  162       -2.860676   1.000000
  163       -2.854631   1.000000
  164       -2.846116   1.000000
  165       -2.842944   1.000000
  166       -2.835121   1.000000
  167       -2.832647   1.000000
  168       -2.822631   1.000000
  169       -2.808182   1.000000
  170       -2.789270   1.000000
  171       -2.775894   1.000000
  172       -2.748687   1.000000
  173       -2.727876   1.000000
  174       -2.718811   1.000000
  175       -2.717677   1.000000
  176       -2.689814   1.000000
  177       -2.684357   1.000000
  178       -2.676206   1.000000
  179       -2.660481   1.000000
  180       -2.660166   1.000000
  181       -2.630963   1.000000
  182       -2.630566   1.000000
  183       -2.620115   1.000000
  184       -2.611167   1.000000
  185       -2.541624   1.000000
  186       -2.512825   1.000000
  187       -2.497529   1.000000
  188       -2.478943   1.000000
  189       -2.478480   1.000000
  190       -2.437813   1.000000
  191       -2.402912   1.000000
  192       -2.399932   1.000000
  193       -2.386104   1.000000
  194       -2.379721   1.000000
  195       -2.369899   1.000000
  196       -2.366627   1.000000
  197       -2.350669   1.000000
  198       -2.337015   1.000000
  199       -2.334810   1.000000
  200       -2.319685   1.000000
  201       -2.295155   1.000000
  202       -2.227529   1.000000
  203       -2.226800   1.000000
  204       -2.163312   1.000000
  205       -2.156899   1.000000
  206       -2.131832   1.000000
  207       -2.064281   1.000000
  208       -2.022243   1.000000
  209       -2.006797   1.000000
  210       -1.943008   1.000000
  211       -1.941441   1.000000
  212       -1.912393   1.000000
  213       -1.901935   1.000000
  214       -1.890278   1.000000
  215       -1.881642   1.000000
  216       -1.842125   1.000000
  217       -1.839140   1.000000
  218       -1.823338   1.000000
  219       -1.797112   1.000000
  220       -1.789779   1.000000
  221       -1.785158   1.000000
  222       -1.774297   1.000000
  223       -1.770940   1.000000
  224       -1.763697   1.000000
  225       -1.762166   1.000000
  226       -1.750976   1.000000
  227       -1.723256   1.000000
  228       -1.714044   1.000000
  229       -1.677157   1.000000
  230       -1.651577   1.000000
  231       -1.593872   1.000000
  232       -1.567721   1.000000
  233       -1.558193   1.000000
  234       -1.525183   1.000000
  235       -1.505664   1.000000
  236       -1.503336   1.000000
  237       -1.493647   1.000000
  238       -1.453933   1.000000
  239       -1.453315   1.000000
  240       -1.397842   1.000000
  241       -1.374842   1.000000
  242       -1.360167   1.000000
  243       -1.318167   1.000000
  244       -1.282801   1.000000
  245       -1.256851   1.000000
  246       -1.251326   1.000000
  247       -1.237259   1.000000
  248       -1.209974   1.000000
  249       -1.189437   1.000000
  250       -1.157808   1.000000
  251       -1.156184   1.000000
  252       -1.148093   1.000000
  253       -1.138075   1.000000
  254       -1.096189   1.000000
  255       -1.092632   1.000000
  256       -1.074026   1.000000
  257       -1.030293   1.000000
  258       -1.018511   1.000000
  259       -0.974629   1.000000
  260       -0.962929   1.000000
  261       -0.922824   1.000000
  262       -0.907643   1.000000
  263       -0.898857   1.000000
  264       -0.877350   1.000000
  265       -0.873935   1.000000
  266       -0.844904   1.000000
  267       -0.837605   1.000000
  268       -0.799599   1.000000
  269       -0.795522   1.000000
  270       -0.780180   1.000000
  271       -0.767898   1.000000
  272       -0.746485   1.000000
  273       -0.743686   1.000000
  274       -0.727464   1.000000
  275       -0.701754   1.000000
  276       -0.635531   1.000000
  277       -0.632837   1.000000
  278       -0.579639   1.000000
  279       -0.526339   1.000000
  280       -0.508995   1.000000
  281       -0.446847   1.000000
  282       -0.398081   1.000000
  283       -0.391619   1.000000
  284       -0.360241   1.000000
  285       -0.343660   1.000000
  286       -0.331979   1.000000
  287       -0.294024   1.000000
  288       -0.276941   1.000000
  289       -0.246574   1.000000
  290       -0.231416   1.000000
  291       -0.224520   1.000000
  292       -0.203265   1.000000
  293       -0.183492   1.000000
  294       -0.172174   1.000000
  295       -0.163718   1.000000
  296       -0.117318   1.000000
  297       -0.092915   1.000000
  298       -0.070564   1.000000
  299       -0.005858   0.999999
  300        0.001017   0.999999
  301        0.014890   0.999996
  302        0.064662   0.999922
  303        0.065536   0.999918
  304        0.094249   0.999614
  305        0.095295   0.999593
  306        0.101366   0.999447
  307        0.110701   0.999127
  308        0.142889   0.996264
  309        0.149538   0.995074
  310        0.157510   0.993212
  311        0.184822   0.981329
  312        0.189522   0.978076
  313        0.211811   0.955465
  314        0.216453   0.948941
  315        0.234251   0.916664
  316        0.235927   0.912970
  317        0.249957   0.877152
  318        0.254275   0.864290
  319        0.286429   0.740558
  320        0.286919   0.738310
  321        0.299484   0.677403
  322        0.300261   0.673450
  323        0.313832   0.601618
  324        0.314817   0.596229
  325        0.317082   0.583777
  326        0.319136   0.572416
  327        0.322147   0.555647
  328        0.324830   0.540619
  329        0.339704   0.456859
  330        0.339863   0.455968
  331        0.348082   0.410276
  332        0.350682   0.396042
  333        0.371034   0.290673
  334        0.400006   0.168238
  335        0.431018   0.080799
  336        0.481856   0.017059
  337        0.495400   0.010438
  338        0.498391   0.009323
  339        0.506825   0.006722
  340        0.576737   0.000270
  341        0.584440   0.000179
  342        0.607428   0.000049
  343        0.620294   0.000023
  344        0.660685   0.000002
  345        0.664448   0.000001
  346        0.726141   0.000000
  347        0.728081   0.000000
  348        0.747348   0.000000
  349        0.748780   0.000000
  350        0.811909   0.000000
  351        0.857978   0.000000
  352        1.117095   0.000000
  353        1.211078   0.000000
  354        1.253612   0.000000
  355        1.271973   0.000000
  356        1.392643   0.000000
  357        1.603838   0.000000
  358        1.614493   0.000000
  359        1.921891   0.000000
  360        2.019181   0.000000
  361        2.131167   0.000000
  362        2.153301   0.000000
  363        2.486616   0.000000
  364        2.545205   0.000000
  365        2.626227   0.000000
  366        2.626981   0.000000
  367        2.665434   0.000000
  368        2.718759   0.000000
  369        2.782402   0.000000
  370        2.803705   0.000000
  371        2.964022   0.000000
  372        2.991702   0.000000
  373        3.008547   0.000000
  374        3.142761   0.000000
  375        3.264123   0.000000
  376        3.284251   0.000000
  377        3.392706   0.000000
  378        3.783846   0.000000
  379        3.828345   0.000000
  380        3.835508   0.000000
  381        3.896455   0.000000
  382        4.027037   0.000000
  383        4.071526   0.000000
  384        4.349792   0.000000
  385        4.351782   0.000000
  386        4.487767   0.000000
  387        4.498317   0.000000
  388        4.629901   0.000000
  389        4.694332   0.000000
  390        5.099134   0.000000
  391        5.173523   0.000000
  392        5.406335   0.000000
