       N       E                     dE             d eps       ncg     rms          rms(c)
DAV:   1     0.430489999424E+04    0.43049E+04   -0.26803E+05   784   0.127E+03
DAV:   2    -0.580127925089E+02   -0.43629E+04   -0.40279E+04   936   0.278E+02
DAV:   3    -0.386759670635E+03   -0.32875E+03   -0.29704E+03   928   0.700E+01
DAV:   4    -0.404705483564E+03   -0.17946E+02   -0.16248E+02  1040   0.144E+01
DAV:   5    -0.405267653660E+03   -0.56217E+00   -0.55081E+00   992   0.251E+00    0.883E+01
RMM:   6    -0.411295488017E+03   -0.60278E+01   -0.82890E+01   787   0.142E+01    0.780E+01
RMM:   7    -0.448721248523E+03   -0.37426E+02   -0.15549E+02   787   0.129E+01    0.722E+01
RMM:   8    -0.566885395737E+03   -0.11816E+03   -0.13935E+02   787   0.128E+01    0.974E+01
RMM:   9    -0.479393472459E+03    0.87492E+02   -0.10100E+02   785   0.105E+01    0.710E+01
RMM:  10    -0.404086543224E+03    0.75307E+02   -0.45595E+01   786   0.790E+00    0.447E+01
RMM:  11    -0.391473927244E+03    0.12613E+02   -0.34244E+01   787   0.707E+00    0.396E+01
RMM:  12    -0.380737190029E+03    0.10737E+02   -0.71907E+00   785   0.343E+00    0.197E+01
RMM:  13    -0.379654950289E+03    0.10822E+01   -0.31095E+00   788   0.219E+00    0.187E+01
RMM:  14    -0.378376542546E+03    0.12784E+01   -0.11539E+00   789   0.134E+00    0.126E+01
RMM:  15    -0.377679810599E+03    0.69673E+00   -0.44810E-01   788   0.870E-01    0.758E+00
RMM:  16    -0.377584674853E+03    0.95136E-01   -0.36396E-01   788   0.765E-01    0.756E+00
RMM:  17    -0.377325965331E+03    0.25871E+00   -0.19779E-01   789   0.576E-01    0.474E+00
RMM:  18    -0.377367628511E+03   -0.41663E-01   -0.26937E-01   789   0.666E-01    0.577E+00
RMM:  19    -0.377274706585E+03    0.92922E-01   -0.13616E-01   788   0.494E-01    0.324E+00
RMM:  20    -0.377252033132E+03    0.22673E-01   -0.94146E-02   790   0.391E-01    0.292E+00
RMM:  21    -0.377228119426E+03    0.23914E-01   -0.43709E-02   788   0.266E-01    0.206E+00
RMM:  22    -0.377203497972E+03    0.24621E-01   -0.18236E-02   789   0.175E-01    0.114E+00
RMM:  23    -0.377204612757E+03   -0.11148E-02   -0.69202E-03   788   0.105E-01    0.128E+00
RMM:  24    -0.377202669953E+03    0.19428E-02   -0.49397E-03   789   0.883E-02    0.111E+00
RMM:  25    -0.377199302490E+03    0.33675E-02   -0.48160E-03   788   0.892E-02    0.818E-01
RMM:  26    -0.377196987001E+03    0.23155E-02   -0.11880E-03   788   0.439E-02    0.472E-01
RMM:  27    -0.377196182468E+03    0.80453E-03   -0.49996E-04   789   0.280E-02    0.309E-01
RMM:  28    -0.377196230915E+03   -0.48448E-04   -0.38999E-04   790   0.239E-02    0.246E-01
RMM:  29    -0.377196398734E+03   -0.16782E-03   -0.25021E-04   789   0.198E-02    0.217E-01
RMM:  30    -0.377196484923E+03   -0.86190E-04   -0.18945E-04   788   0.167E-02    0.145E-01
RMM:  31    -0.377196719782E+03   -0.23486E-03   -0.15246E-04   789   0.152E-02    0.121E-01
RMM:  32    -0.377196775111E+03   -0.55329E-04   -0.48301E-05   788   0.855E-03    0.796E-02
RMM:  33    -0.377196939689E+03   -0.16458E-03   -0.65572E-05   786   0.940E-03    0.359E-02
RMM:  34    -0.377197089900E+03   -0.15021E-03   -0.26741E-05   782   0.595E-03    0.407E-02
RMM:  35    -0.377197225101E+03   -0.13520E-03   -0.14480E-05   731   0.401E-03    0.298E-02
RMM:  36    -0.377197369060E+03   -0.14396E-03   -0.13717E-05   697   0.383E-03    0.152E-02
RMM:  37    -0.377197500912E+03   -0.13185E-03   -0.12035E-05   665   0.350E-03    0.141E-02
RMM:  38    -0.377197596084E+03   -0.95172E-04   -0.70435E-06   578   0.251E-03    0.129E-02
RMM:  39    -0.377197640956E+03   -0.44872E-04   -0.23708E-06   485   0.153E-03    0.141E-02
RMM:  40    -0.377197730420E+03   -0.89464E-04   -0.52178E-06   547   0.205E-03    0.153E-02
RMM:  41    -0.377197802149E+03   -0.71729E-04   -0.62362E-06   569   0.206E-03    0.711E-03
RMM:  42    -0.377197827684E+03   -0.25535E-04   -0.16809E-06   462   0.113E-03    0.597E-03
RMM:  43    -0.377197849841E+03   -0.22157E-04   -0.10123E-06   433   0.845E-04    0.439E-03
RMM:  44    -0.377197861418E+03   -0.11577E-04   -0.42331E-07   315   0.591E-04    0.276E-03
RMM:  45    -0.377197878081E+03   -0.16663E-04   -0.50219E-07   396   0.632E-04    0.212E-03
RMM:  46    -0.377197889047E+03   -0.10966E-04   -0.30020E-07   263   0.501E-04    0.198E-03
RMM:  47    -0.377197895938E+03   -0.68910E-05   -0.18111E-07   247   0.454E-04    0.141E-03
RMM:  48    -0.377197900392E+03   -0.44537E-05   -0.12289E-07   220   0.404E-04    0.886E-04
RMM:  49    -0.377197903479E+03   -0.30864E-05   -0.77078E-08   166   0.355E-04    0.865E-04
RMM:  50    -0.377197905884E+03   -0.24052E-05   -0.52322E-08   121   0.328E-04    0.115E-03
RMM:  51    -0.377197906779E+03   -0.89562E-06   -0.18617E-08    82   0.313E-04
   1 F= -.41222074E+03 E0= -.41170904E+03  d E =-.102340E+01
       N       E                     dE             d eps       ncg     rms          rms(c)
DAV:   1    -0.377193460277E+03    0.44456E-02   -0.12395E+00   800   0.181E+00    0.266E-01
RMM:   2    -0.377196023558E+03   -0.25633E-02   -0.17170E-02   789   0.185E-01    0.502E-01
RMM:   3    -0.377197219569E+03   -0.11960E-02   -0.11774E-03   793   0.401E-02    0.665E-01
RMM:   4    -0.377195319639E+03    0.18999E-02   -0.96950E-04   788   0.368E-02    0.384E-01
RMM:   5    -0.377195605796E+03   -0.28616E-03   -0.78344E-04   788   0.352E-02    0.456E-01
RMM:   6    -0.377195159253E+03    0.44654E-03   -0.61234E-04   789   0.314E-02    0.300E-01
RMM:   7    -0.377194824802E+03    0.33445E-03   -0.33927E-04   789   0.235E-02    0.165E-01
RMM:   8    -0.377194734333E+03    0.90469E-04   -0.16364E-04   788   0.163E-02    0.977E-02
RMM:   9    -0.377194711911E+03    0.22421E-04   -0.71072E-05   788   0.108E-02    0.717E-02
RMM:  10    -0.377194686283E+03    0.25629E-04   -0.24631E-05   785   0.642E-03    0.389E-02
RMM:  11    -0.377194679778E+03    0.65045E-05   -0.54628E-06   653   0.302E-03    0.189E-02
RMM:  12    -0.377194678340E+03    0.14383E-05   -0.16498E-06   433   0.178E-03    0.853E-03
RMM:  13    -0.377194678432E+03   -0.92550E-07   -0.78938E-07   408   0.126E-03
   2 F= -.41221801E+03 E0= -.41170616E+03  d E =-.102370E+01
       N       E                     dE             d eps       ncg     rms          rms(c)
DAV:   1    -0.377195496581E+03   -0.81824E-03   -0.49437E+00   792   0.362E+00    0.537E-01
RMM:   2    -0.377203547778E+03   -0.80512E-02   -0.73549E-02   790   0.372E-01    0.736E-01
RMM:   3    -0.377208187428E+03   -0.46396E-02   -0.49969E-03   792   0.890E-02    0.116E+00
RMM:   4    -0.377209544266E+03   -0.13568E-02   -0.41751E-03   789   0.699E-02    0.125E+00
RMM:   5    -0.377203631640E+03    0.59126E-02   -0.32546E-03   788   0.702E-02    0.825E-01
RMM:   6    -0.377202376382E+03    0.12553E-02   -0.24254E-03   788   0.626E-02    0.585E-01
RMM:   7    -0.377201244342E+03    0.11320E-02   -0.13618E-03   787   0.472E-02    0.336E-01
RMM:   8    -0.377200860322E+03    0.38402E-03   -0.69420E-04   788   0.335E-02    0.201E-01
RMM:   9    -0.377200762212E+03    0.98110E-04   -0.30152E-04   788   0.222E-02    0.155E-01
RMM:  10    -0.377200649836E+03    0.11238E-03   -0.10456E-04   788   0.133E-02    0.857E-02
RMM:  11    -0.377200619029E+03    0.30807E-04   -0.24529E-05   785   0.631E-03    0.453E-02
RMM:  12    -0.377200610711E+03    0.83178E-05   -0.82199E-06   773   0.365E-03    0.227E-02
RMM:  13    -0.377200609710E+03    0.10012E-05   -0.33549E-06   510   0.245E-03    0.161E-02
RMM:  14    -0.377200608653E+03    0.10574E-05   -0.15869E-06   432   0.187E-03    0.800E-03
RMM:  15    -0.377200608617E+03    0.36242E-07   -0.56999E-07   409   0.112E-03
   3 F= -.41222296E+03 E0= -.41171140E+03  d E =-.102312E+01
       N       E                     dE             d eps       ncg     rms          rms(c)
DAV:   1    -0.377198863128E+03    0.17455E-02   -0.23736E+00   792   0.251E+00    0.346E-01
RMM:   2    -0.377203937992E+03   -0.50749E-02   -0.39190E-02   789   0.261E-01    0.566E-01
RMM:   3    -0.377210261401E+03   -0.63234E-02   -0.33873E-03   790   0.671E-02    0.120E+00
RMM:   4    -0.377202202214E+03    0.80592E-02   -0.19987E-03   791   0.524E-02    0.492E-01
RMM:   5    -0.377202232404E+03   -0.30190E-04   -0.13159E-03   788   0.450E-02    0.450E-01
RMM:   6    -0.377201838173E+03    0.39423E-03   -0.67161E-04   789   0.332E-02    0.349E-01
RMM:   7    -0.377201324603E+03    0.51357E-03   -0.35255E-04   788   0.241E-02    0.154E-01
RMM:   8    -0.377201325385E+03   -0.78185E-06   -0.20879E-04   790   0.191E-02    0.124E-01
RMM:   9    -0.377201322799E+03    0.25863E-05   -0.11073E-04   788   0.138E-02    0.920E-02
RMM:  10    -0.377201259516E+03    0.63283E-04   -0.48188E-05   788   0.896E-03    0.329E-02
RMM:  11    -0.377201252640E+03    0.68757E-05   -0.81021E-06   757   0.377E-03    0.181E-02
RMM:  12    -0.377201252776E+03   -0.13609E-06   -0.25525E-06   467   0.215E-03
   4 F= -.41222170E+03 E0= -.41170965E+03  d E =-.102409E+01
       N       E                     dE             d eps       ncg     rms          rms(c)
DAV:   1    -0.377190162140E+03    0.11090E-01   -0.45239E+00   792   0.342E+00    0.603E-01
RMM:   2    -0.377209392275E+03   -0.19230E-01   -0.10956E-01   790   0.386E-01    0.125E+00
RMM:   3    -0.377221738175E+03   -0.12346E-01   -0.12845E-02   793   0.131E-01    0.210E+00
RMM:   4    -0.377196377936E+03    0.25360E-01   -0.48195E-03   789   0.835E-02    0.663E-01
RMM:   5    -0.377195702839E+03    0.67510E-03   -0.29680E-03   788   0.679E-02    0.549E-01
RMM:   6    -0.377196304929E+03   -0.60209E-03   -0.19172E-03   789   0.561E-02    0.601E-01
RMM:   7    -0.377195620867E+03    0.68406E-03   -0.13038E-03   788   0.467E-02    0.402E-01
RMM:   8    -0.377195061420E+03    0.55945E-03   -0.76885E-04   789   0.361E-02    0.215E-01
RMM:   9    -0.377195060932E+03    0.48857E-06   -0.40391E-04   788   0.255E-02    0.179E-01
RMM:  10    -0.377194836225E+03    0.22471E-03   -0.16016E-04   789   0.166E-02    0.650E-02
RMM:  11    -0.377194816450E+03    0.19775E-04   -0.25488E-05   785   0.658E-03    0.416E-02
RMM:  12    -0.377194812420E+03    0.40300E-05   -0.80468E-06   755   0.357E-03    0.270E-02
RMM:  13    -0.377194817981E+03   -0.55607E-05   -0.66596E-06   719   0.336E-03    0.324E-02
RMM:  14    -0.377194815235E+03    0.27459E-05   -0.36542E-06   540   0.265E-03    0.138E-02
RMM:  15    -0.377194815746E+03   -0.51127E-06   -0.14512E-06   423   0.174E-03
   5 F= -.41221999E+03 E0= -.41170865E+03  d E =-.102268E+01
       N       E                     dE             d eps       ncg     rms          rms(c)
DAV:   1    -0.377191789146E+03    0.30261E-02   -0.23270E+00   792   0.245E+00    0.583E-01
RMM:   2    -0.377200410814E+03   -0.86217E-02   -0.60854E-02   790   0.297E-01    0.964E-01
RMM:   3    -0.377199131871E+03    0.12789E-02   -0.52213E-03   792   0.900E-02    0.995E-01
RMM:   4    -0.377206005707E+03   -0.68738E-02   -0.43906E-03   790   0.722E-02    0.143E+00
RMM:   5    -0.377198371282E+03    0.76344E-02   -0.39872E-03   788   0.754E-02    0.957E-01
RMM:   6    -0.377196383767E+03    0.19875E-02   -0.27170E-03   788   0.655E-02    0.662E-01
RMM:   7    -0.377194907153E+03    0.14766E-02   -0.17666E-03   788   0.535E-02    0.370E-01
RMM:   8    -0.377194372842E+03    0.53431E-03   -0.81645E-04   788   0.363E-02    0.212E-01
RMM:   9    -0.377194281987E+03    0.90855E-04   -0.32256E-04   788   0.227E-02    0.171E-01
RMM:  10    -0.377194117814E+03    0.16417E-03   -0.11889E-04   788   0.141E-02    0.688E-02
RMM:  11    -0.377194099295E+03    0.18519E-04   -0.19997E-05   786   0.572E-03    0.487E-02
RMM:  12    -0.377194091559E+03    0.77356E-05   -0.74687E-06   750   0.340E-03    0.299E-02
RMM:  13    -0.377194091142E+03    0.41744E-06   -0.58759E-06   690   0.309E-03
   6 F= -.41221691E+03 E0= -.41170446E+03  d E =-.102489E+01
       N       E                     dE             d eps       ncg     rms          rms(c)
DAV:   1    -0.377192994964E+03    0.10966E-02   -0.48395E+00   784   0.354E+00    0.817E-01
RMM:   2    -0.377210573031E+03   -0.17578E-01   -0.93882E-02   790   0.395E-01    0.154E+00
RMM:   3    -0.377206074891E+03    0.44981E-02   -0.50328E-03   796   0.836E-02    0.121E+00
RMM:   4    -0.377211212823E+03   -0.51379E-02   -0.61746E-03   792   0.921E-02    0.154E+00
RMM:   5    -0.377213796226E+03   -0.25834E-02   -0.92899E-03   788   0.118E-01    0.173E+00
RMM:   6    -0.377205515227E+03    0.82810E-02   -0.64309E-03   788   0.101E-01    0.108E+00
RMM:   7    -0.377200241937E+03    0.52733E-02   -0.30585E-03   788   0.688E-02    0.498E-01
RMM:   8    -0.377199504849E+03    0.73709E-03   -0.15879E-03   788   0.499E-02    0.314E-01
RMM:   9    -0.377199205295E+03    0.29955E-03   -0.70584E-04   788   0.334E-02    0.215E-01
RMM:  10    -0.377198937417E+03    0.26788E-03   -0.22473E-04   789   0.191E-02    0.930E-02
RMM:  11    -0.377198903403E+03    0.34014E-04   -0.37949E-05   788   0.775E-03    0.559E-02
RMM:  12    -0.377198893301E+03    0.10102E-04   -0.15981E-05   784   0.502E-03    0.318E-02
RMM:  13    -0.377198894060E+03   -0.75880E-06   -0.91417E-06   772   0.389E-03
   7 F= -.41222177E+03 E0= -.41171081E+03  d E =-.102193E+01
       N       E                     dE             d eps       ncg     rms          rms(c)
DAV:   1    -0.377189720235E+03    0.91731E-02   -0.24203E+00   784   0.255E+00    0.545E-01
RMM:   2    -0.377198077669E+03   -0.83574E-02   -0.66017E-02   789   0.312E-01    0.847E-01
RMM:   3    -0.377203386118E+03   -0.53084E-02   -0.40866E-03   791   0.758E-02    0.123E+00
RMM:   4    -0.377201841329E+03    0.15448E-02   -0.41954E-03   788   0.725E-02    0.110E+00
RMM:   5    -0.377199223316E+03    0.26180E-02   -0.38218E-03   790   0.757E-02    0.991E-01
RMM:   6    -0.377196470207E+03    0.27531E-02   -0.26046E-03   789   0.639E-02    0.587E-01
RMM:   7    -0.377195160985E+03    0.13092E-02   -0.11871E-03   788   0.434E-02    0.321E-01
RMM:   8    -0.377194795991E+03    0.36499E-03   -0.60762E-04   788   0.314E-02    0.178E-01
RMM:   9    -0.377194731531E+03    0.64459E-04   -0.28548E-04   788   0.214E-02    0.146E-01
RMM:  10    -0.377194625190E+03    0.10634E-03   -0.92027E-05   788   0.121E-02    0.729E-02
RMM:  11    -0.377194604080E+03    0.21110E-04   -0.21449E-05   785   0.579E-03    0.383E-02
RMM:  12    -0.377194600800E+03    0.32800E-05   -0.84660E-06   756   0.365E-03    0.249E-02
RMM:  13    -0.377194598465E+03    0.23352E-05   -0.33915E-06   521   0.249E-03    0.139E-02
RMM:  14    -0.377194597639E+03    0.82618E-06   -0.14348E-06   431   0.180E-03
   8 F= -.41221793E+03 E0= -.41170608E+03  d E =-.102370E+01
       N       E                     dE             d eps       ncg     rms          rms(c)
DAV:   1    -0.377195532490E+03   -0.93402E-03   -0.49431E+00   784   0.362E+00    0.539E-01
RMM:   2    -0.377203500584E+03   -0.79681E-02   -0.73979E-02   790   0.372E-01    0.720E-01
RMM:   3    -0.377205520444E+03   -0.20199E-02   -0.48010E-03   791   0.889E-02    0.958E-01
RMM:   4    -0.377213371878E+03   -0.78514E-02   -0.43388E-03   788   0.706E-02    0.147E+00
RMM:   5    -0.377203643291E+03    0.97286E-02   -0.34449E-03   788   0.705E-02    0.808E-01
RMM:   6    -0.377202505925E+03    0.11374E-02   -0.24567E-03   789   0.630E-02    0.596E-01
RMM:   7    -0.377201342510E+03    0.11634E-02   -0.13444E-03   788   0.467E-02    0.346E-01
RMM:   8    -0.377200933659E+03    0.40885E-03   -0.69987E-04   788   0.337E-02    0.201E-01
RMM:   9    -0.377200836113E+03    0.97546E-04   -0.30598E-04   788   0.224E-02    0.153E-01
RMM:  10    -0.377200724415E+03    0.11170E-03   -0.10573E-04   787   0.134E-02    0.843E-02
RMM:  11    -0.377200694877E+03    0.29538E-04   -0.24008E-05   785   0.624E-03    0.456E-02
RMM:  12    -0.377200686539E+03    0.83379E-05   -0.82297E-06   772   0.365E-03    0.227E-02
RMM:  13    -0.377200685679E+03    0.85950E-06   -0.33861E-06   513   0.246E-03
   9 F= -.41222304E+03 E0= -.41171148E+03  d E =-.102312E+01
       N       E                     dE             d eps       ncg     rms          rms(c)
DAV:   1    -0.377192708877E+03    0.79777E-02   -0.23771E+00   784   0.248E+00    0.462E-01
RMM:   2    -0.377200158906E+03   -0.74500E-02   -0.48087E-02   790   0.281E-01    0.816E-01
RMM:   3    -0.377198508534E+03    0.16504E-02   -0.48261E-03   791   0.851E-02    0.832E-01
RMM:   4    -0.377198093505E+03    0.41503E-03   -0.18173E-03   794   0.485E-02    0.797E-01
RMM:   5    -0.377196379397E+03    0.17141E-02   -0.20432E-03   789   0.545E-02    0.622E-01
RMM:   6    -0.377196198830E+03    0.18057E-03   -0.15061E-03   788   0.488E-02    0.534E-01
RMM:   7    -0.377195434561E+03    0.76427E-03   -0.10581E-03   789   0.413E-02    0.325E-01
RMM:   8    -0.377194975293E+03    0.45927E-03   -0.51684E-04   788   0.291E-02    0.163E-01
RMM:   9    -0.377194968971E+03    0.63216E-05   -0.23398E-04   788   0.193E-02    0.141E-01
RMM:  10    -0.377194834800E+03    0.13417E-03   -0.93603E-05   788   0.126E-02    0.481E-02
RMM:  11    -0.377194820952E+03    0.13848E-04   -0.15867E-05   783   0.521E-03    0.248E-02
RMM:  12    -0.377194820651E+03    0.30146E-06   -0.41860E-06   572   0.264E-03
  10 F= -.41222000E+03 E0= -.41170863E+03  d E =-.102273E+01
       N       E                     dE             d eps       ncg     rms          rms(c)
DAV:   1    -0.377196890042E+03   -0.20691E-02   -0.45548E+00   784   0.342E+00    0.588E-01
RMM:   2    -0.377213655596E+03   -0.16766E-01   -0.10744E-01   790   0.386E-01    0.115E+00
RMM:   3    -0.377222875825E+03   -0.92202E-02   -0.11275E-02   793   0.124E-01    0.187E+00
RMM:   4    -0.377202745298E+03    0.20131E-01   -0.40121E-03   789   0.751E-02    0.669E-01
RMM:   5    -0.377201974473E+03    0.77082E-03   -0.26207E-03   788   0.642E-02    0.539E-01
RMM:   6    -0.377202790586E+03   -0.81611E-03   -0.19321E-03   789   0.563E-02    0.589E-01
RMM:   7    -0.377202045695E+03    0.74489E-03   -0.13602E-03   788   0.480E-02    0.396E-01
RMM:   8    -0.377201523114E+03    0.52258E-03   -0.74018E-04   789   0.357E-02    0.221E-01
RMM:   9    -0.377201463168E+03    0.59947E-04   -0.37393E-04   788   0.246E-02    0.166E-01
RMM:  10    -0.377201281359E+03    0.18181E-03   -0.14398E-04   789   0.156E-02    0.651E-02
RMM:  11    -0.377201254128E+03    0.27230E-04   -0.22739E-05   786   0.631E-03    0.368E-02
RMM:  12    -0.377201253633E+03    0.49503E-06   -0.74878E-06   742   0.342E-03
  11 F= -.41222170E+03 E0= -.41170969E+03  d E =-.102401E+01
       N       E                     dE             d eps       ncg     rms          rms(c)
DAV:   1    -0.377191428928E+03    0.98252E-02   -0.23455E+00   792   0.247E+00    0.387E-01
RMM:   2    -0.377200275122E+03   -0.88462E-02   -0.40666E-02   788   0.255E-01    0.962E-01
RMM:   3    -0.377197244403E+03    0.30307E-02   -0.21394E-03   790   0.561E-02    0.781E-01
RMM:   4    -0.377196150136E+03    0.10943E-02   -0.20186E-03   788   0.536E-02    0.655E-01
RMM:   5    -0.377196535790E+03   -0.38565E-03   -0.20273E-03   788   0.563E-02    0.700E-01
RMM:   6    -0.377195684568E+03    0.85122E-03   -0.11950E-03   790   0.428E-02    0.508E-01
RMM:   7    -0.377194409561E+03    0.12750E-02   -0.66095E-04   788   0.321E-02    0.229E-01
RMM:   8    -0.377194327335E+03    0.82226E-04   -0.40896E-04   788   0.258E-02    0.181E-01
RMM:   9    -0.377194251998E+03    0.75337E-04   -0.21533E-04   788   0.190E-02    0.108E-01
RMM:  10    -0.377194159657E+03    0.92341E-04   -0.71628E-05   789   0.107E-02    0.401E-02
RMM:  11    -0.377194153771E+03    0.58855E-05   -0.11104E-05   776   0.429E-03    0.269E-02
RMM:  12    -0.377194153611E+03    0.16081E-06   -0.38726E-06   554   0.256E-03
  12 F= -.41221697E+03 E0= -.41170452E+03  d E =-.102490E+01
       N       E                     dE             d eps       ncg     rms          rms(c)
DAV:   1    -0.377192891182E+03    0.12626E-02   -0.48397E+00   784   0.355E+00    0.819E-01
RMM:   2    -0.377211697467E+03   -0.18806E-01   -0.93505E-02   790   0.394E-01    0.160E+00
RMM:   3    -0.377205485049E+03    0.62124E-02   -0.51140E-03   797   0.837E-02    0.118E+00
RMM:   4    -0.377209022070E+03   -0.35370E-02   -0.60192E-03   792   0.926E-02    0.141E+00
RMM:   5    -0.377213966405E+03   -0.49443E-02   -0.91821E-03   788   0.117E-01    0.173E+00
RMM:   6    -0.377204734182E+03    0.92322E-02   -0.61364E-03   788   0.989E-02    0.102E+00
RMM:   7    -0.377200121420E+03    0.46128E-02   -0.29037E-03   788   0.670E-02    0.490E-01
RMM:   8    -0.377199416034E+03    0.70539E-03   -0.15396E-03   788   0.492E-02    0.310E-01
RMM:   9    -0.377199117475E+03    0.29856E-03   -0.67941E-04   788   0.328E-02    0.205E-01
RMM:  10    -0.377198859461E+03    0.25801E-03   -0.21243E-04   789   0.186E-02    0.750E-02
RMM:  11    -0.377198834811E+03    0.24650E-04   -0.33805E-05   788   0.736E-03    0.511E-02
RMM:  12    -0.377198828602E+03    0.62096E-05   -0.13168E-05   781   0.452E-03    0.357E-02
RMM:  13    -0.377198827424E+03    0.11773E-05   -0.83744E-06   769   0.371E-03    0.248E-02
RMM:  14    -0.377198826138E+03    0.12870E-05   -0.49828E-06   640   0.299E-03    0.186E-02
RMM:  15    -0.377198826391E+03   -0.25314E-06   -0.21145E-06   438   0.204E-03
  13 F= -.41222170E+03 E0= -.41171074E+03  d E =-.102192E+01
