 running on   48 total cores
 distrk:  each k-point on   48 cores,    1 groups
 distr:  one band on    8 cores,    6 groups
 using from now: INCAR     
 vasp.5.4.4.18Apr17-6-g9f103f2a35 (build Nov 06 2023 00:46:14) complex          
  
 POSCAR found type information on POSCAR  Pt O 
 POSCAR found :  2 types and      66 ions
 scaLAPACK will be used
 LDA part: xc-table for Pade appr. of Perdew
 POSCAR found type information on POSCAR  Pt O 
 POSCAR found :  2 types and      66 ions
 POSCAR, INCAR and KPOINTS ok, starting setup
 FFT: planning ...
 WAVECAR not read
 WARNING: chargedensity file is incomplete
 entering main loop
       N       E                     dE             d eps       ncg     rms          rms(c)
DAV:   1     0.428069894262E+04    0.42807E+04   -0.26719E+05  3960   0.126E+03
DAV:   2    -0.652255381450E+02   -0.43459E+04   -0.39987E+04  4656   0.276E+02
DAV:   3    -0.393830031142E+03   -0.32860E+03   -0.29554E+03  4668   0.695E+01
DAV:   4    -0.409538162604E+03   -0.15708E+02   -0.14769E+02  5196   0.140E+01
DAV:   5    -0.409927520785E+03   -0.38936E+00   -0.38699E+00  4836   0.228E+00    0.877E+01
RMM:   6    -0.414773035684E+03   -0.48455E+01   -0.83165E+01  3977   0.141E+01    0.748E+01
RMM:   7    -0.515220808003E+03   -0.10045E+03   -0.21818E+02  4054   0.144E+01    0.865E+01
RMM:   8    -0.573288351400E+03   -0.58068E+02   -0.20211E+02  3986   0.136E+01    0.957E+01
RMM:   9    -0.418713626271E+03    0.15457E+03   -0.54541E+01  3971   0.890E+00    0.497E+01
RMM:  10    -0.403632927399E+03    0.15081E+02   -0.55651E+01  3963   0.890E+00    0.399E+01
RMM:  11    -0.385847160104E+03    0.17786E+02   -0.13930E+01  3977   0.457E+00    0.243E+01
RMM:  12    -0.381875291172E+03    0.39719E+01   -0.41579E+00  3983   0.251E+00    0.148E+01
RMM:  13    -0.381493875699E+03    0.38142E+00   -0.17392E+00  3983   0.159E+00    0.127E+01
RMM:  14    -0.380419257640E+03    0.10746E+01   -0.69440E-01  3982   0.106E+00    0.653E+00
RMM:  15    -0.380493455317E+03   -0.74198E-01   -0.29637E-01  3985   0.704E-01    0.608E+00
RMM:  16    -0.380389732459E+03    0.10372E+00   -0.28448E-01  3982   0.706E-01    0.541E+00
RMM:  17    -0.380333892353E+03    0.55840E-01   -0.24426E-01  3987   0.657E-01    0.448E+00
RMM:  18    -0.380211816249E+03    0.12208E+00   -0.93385E-02  3982   0.404E-01    0.226E+00
RMM:  19    -0.380190974434E+03    0.20842E-01   -0.34339E-02  3985   0.232E-01    0.180E+00
RMM:  20    -0.380178348944E+03    0.12625E-01   -0.17737E-02  3983   0.171E-01    0.979E-01
RMM:  21    -0.380176601492E+03    0.17475E-02   -0.54153E-03  3983   0.908E-02    0.724E-01
RMM:  22    -0.380174814638E+03    0.17869E-02   -0.25683E-03  3982   0.643E-02    0.592E-01
RMM:  23    -0.380173989259E+03    0.82538E-03   -0.19932E-03  3982   0.561E-02    0.488E-01
RMM:  24    -0.380173918882E+03    0.70377E-04   -0.16678E-03  3982   0.508E-02    0.283E-01
RMM:  25    -0.380173692546E+03    0.22634E-03   -0.70751E-04  3982   0.337E-02    0.129E-01
RMM:  26    -0.380173930907E+03   -0.23836E-03   -0.20718E-04  3984   0.174E-02    0.114E-01
RMM:  27    -0.380174307725E+03   -0.37682E-03   -0.14124E-04  3977   0.140E-02    0.621E-02
RMM:  28    -0.380174628264E+03   -0.32054E-03   -0.88621E-05  3980   0.111E-02    0.453E-02
RMM:  29    -0.380174924095E+03   -0.29583E-03   -0.49445E-05  3961   0.791E-03    0.410E-02
RMM:  30    -0.380175066009E+03   -0.14191E-03   -0.20229E-05  3965   0.503E-03    0.337E-02
RMM:  31    -0.380175379831E+03   -0.31382E-03   -0.36028E-05  3941   0.661E-03    0.428E-02
RMM:  32    -0.380175477659E+03   -0.97828E-04   -0.10160E-05  3534   0.350E-03    0.305E-02
RMM:  33    -0.380175612617E+03   -0.13496E-03   -0.86775E-06  3215   0.295E-03    0.170E-02
RMM:  34    -0.380175712135E+03   -0.99518E-04   -0.60135E-06  2941   0.230E-03    0.116E-02
RMM:  35    -0.380175831935E+03   -0.11980E-03   -0.68790E-06  3049   0.238E-03    0.151E-02
RMM:  36    -0.380175917710E+03   -0.85775E-04   -0.59120E-06  2895   0.204E-03    0.945E-03
RMM:  37    -0.380175945096E+03   -0.27386E-04   -0.14934E-06  2366   0.112E-03    0.857E-03
RMM:  38    -0.380175971503E+03   -0.26407E-04   -0.10611E-06  2235   0.903E-04    0.636E-03
RMM:  39    -0.380175988767E+03   -0.17265E-04   -0.68888E-07  2190   0.787E-04    0.645E-03
RMM:  40    -0.380175997784E+03   -0.90163E-05   -0.27841E-07  1765   0.585E-04    0.278E-03
RMM:  41    -0.380176015234E+03   -0.17450E-04   -0.49590E-07  1854   0.635E-04    0.430E-03
RMM:  42    -0.380176021748E+03   -0.65144E-05   -0.16100E-07  1136   0.427E-04    0.165E-03
RMM:  43    -0.380176029222E+03   -0.74741E-05   -0.51902E-07  2100   0.700E-04    0.113E-02
RMM:  44    -0.380176031867E+03   -0.26452E-05   -0.32267E-07  1709   0.560E-04    0.162E-02
RMM:  45    -0.380176032932E+03   -0.10649E-05   -0.15338E-07  1336   0.433E-04    0.192E-02
RMM:  46    -0.380176037383E+03   -0.44504E-05   -0.29159E-07  1746   0.552E-04    0.271E-02
RMM:  47    -0.380176037151E+03    0.23128E-06   -0.32328E-08   652   0.341E-04
   1 F= -.41525837E+03 E0= -.41491584E+03  d E =-.685061E+00
 Finite differences POTIM= 0.01500 DOF=   6
 bond charge predicted
       N       E                     dE             d eps       ncg     rms          rms(c)
DAV:   1    -0.380173806815E+03    0.22306E-02   -0.12448E+00  4020   0.194E+00    0.254E-01
RMM:   2    -0.380176521486E+03   -0.27147E-02   -0.11884E-02  3985   0.173E-01    0.521E-01
RMM:   3    -0.380175977302E+03    0.54418E-03   -0.10014E-03  3978   0.371E-02    0.432E-01
RMM:   4    -0.380175250043E+03    0.72726E-03   -0.98496E-04  3980   0.380E-02    0.334E-01
RMM:   5    -0.380175170835E+03    0.79208E-04   -0.63761E-04  3984   0.327E-02    0.307E-01
RMM:   6    -0.380174913314E+03    0.25752E-03   -0.47130E-04  3982   0.282E-02    0.212E-01
RMM:   7    -0.380174676322E+03    0.23699E-03   -0.22643E-04  3979   0.193E-02    0.937E-02
RMM:   8    -0.380174655387E+03    0.20936E-04   -0.80232E-05  3978   0.114E-02    0.638E-02
RMM:   9    -0.380174634190E+03    0.21196E-04   -0.28249E-05  3961   0.694E-03    0.340E-02
RMM:  10    -0.380174626703E+03    0.74870E-05   -0.73212E-06  3853   0.356E-03    0.133E-02
RMM:  11    -0.380174625953E+03    0.75064E-06   -0.13223E-06  2161   0.159E-03
   2 F= -.41525744E+03 E0= -.41491487E+03  d E =-.685147E+00
 Finite differences progress:
  Degree of freedom:   1/  6
  Displacement:        1/  2
  Total:               1/ 12
 bond charge predicted
       N       E                     dE             d eps       ncg     rms          rms(c)
DAV:   1    -0.380173395065E+03    0.12316E-02   -0.49643E+00  4020   0.387E+00    0.524E-01
RMM:   2    -0.380179453262E+03   -0.60582E-02   -0.53270E-02  3985   0.352E-01    0.623E-01
RMM:   3    -0.380183252616E+03   -0.37994E-02   -0.51960E-03  3983   0.907E-02    0.964E-01
RMM:   4    -0.380180616851E+03    0.26358E-02   -0.25661E-03  3989   0.571E-02    0.695E-01
RMM:   5    -0.380179944255E+03    0.67260E-03   -0.31542E-03  3980   0.679E-02    0.654E-01
RMM:   6    -0.380178229560E+03    0.17147E-02   -0.19159E-03  3985   0.563E-02    0.434E-01
RMM:   7    -0.380177247949E+03    0.98161E-03   -0.94585E-04  3982   0.393E-02    0.196E-01
RMM:   8    -0.380177135281E+03    0.11267E-03   -0.33302E-04  3981   0.234E-02    0.123E-01
RMM:   9    -0.380177052765E+03    0.82515E-04   -0.11980E-04  3984   0.143E-02    0.719E-02
RMM:  10    -0.380177019077E+03    0.33688E-04   -0.31653E-05  3975   0.736E-03    0.285E-02
RMM:  11    -0.380177014489E+03    0.45889E-05   -0.63249E-06  3646   0.325E-03    0.115E-02
RMM:  12    -0.380177015301E+03   -0.81288E-06   -0.20437E-06  2253   0.197E-03
   3 F= -.41525887E+03 E0= -.41491640E+03  d E =-.684938E+00
 Finite differences progress:
  Degree of freedom:   1/  6
  Displacement:        2/  2
  Total:               2/ 12
 bond charge predicted
       N       E                     dE             d eps       ncg     rms          rms(c)
DAV:   1    -0.380178323872E+03   -0.13094E-02   -0.23938E+00  3996   0.270E+00    0.313E-01
RMM:   2    -0.380182561575E+03   -0.42377E-02   -0.26897E-02  3986   0.243E-01    0.596E-01
RMM:   3    -0.380184104968E+03   -0.15434E-02   -0.23323E-03  3997   0.576E-02    0.732E-01
RMM:   4    -0.380181476006E+03    0.26290E-02   -0.17617E-03  3981   0.494E-02    0.469E-01
RMM:   5    -0.380180336284E+03    0.11397E-02   -0.10462E-03  3983   0.403E-02    0.280E-01
RMM:   6    -0.380179983368E+03    0.35292E-03   -0.48537E-04  3984   0.292E-02    0.143E-01
RMM:   7    -0.380179952910E+03    0.30458E-04   -0.18470E-04  3983   0.182E-02    0.106E-01
RMM:   8    -0.380179948782E+03    0.41279E-05   -0.77890E-05  3980   0.116E-02    0.828E-02
RMM:   9    -0.380179918851E+03    0.29931E-04   -0.36669E-05  3968   0.804E-03    0.430E-02
RMM:  10    -0.380179909743E+03    0.91079E-05   -0.10549E-05  3947   0.428E-03    0.202E-02
RMM:  11    -0.380179908028E+03    0.17156E-05   -0.31093E-06  2550   0.238E-03    0.108E-02
RMM:  12    -0.380179908614E+03   -0.58612E-06   -0.16627E-06  2192   0.192E-03
   4 F= -.41526052E+03 E0= -.41491791E+03  d E =-.685221E+00
 Finite differences progress:
  Degree of freedom:   2/  6
  Displacement:        1/  2
  Total:               3/ 12
 bond charge predicted
       N       E                     dE             d eps       ncg     rms          rms(c)
DAV:   1    -0.380169807511E+03    0.10101E-01   -0.45917E+00  3972   0.370E+00    0.576E-01
RMM:   2    -0.380193638571E+03   -0.23831E-01   -0.76806E-02  3985   0.369E-01    0.162E+00
RMM:   3    -0.380195846743E+03   -0.22082E-02   -0.12386E-02  3993   0.132E-01    0.175E+00
RMM:   4    -0.380173130651E+03    0.22716E-01   -0.54644E-03  3991   0.946E-02    0.467E-01
RMM:   5    -0.380172918128E+03    0.21252E-03   -0.24648E-03  3982   0.622E-02    0.414E-01
RMM:   6    -0.380173560408E+03   -0.64228E-03   -0.17870E-03  3986   0.548E-02    0.506E-01
RMM:   7    -0.380172575387E+03    0.98502E-03   -0.10147E-03  3984   0.418E-02    0.254E-01
RMM:   8    -0.380172268559E+03    0.30683E-03   -0.43517E-04  3982   0.268E-02    0.115E-01
RMM:   9    -0.380172228871E+03    0.39688E-04   -0.12854E-04  3982   0.148E-02    0.862E-02
RMM:  10    -0.380172185246E+03    0.43626E-04   -0.36573E-05  3971   0.799E-03    0.364E-02
RMM:  11    -0.380172179499E+03    0.57468E-05   -0.98546E-06  3935   0.406E-03    0.180E-02
RMM:  12    -0.380172185790E+03   -0.62912E-05   -0.57473E-06  3439   0.312E-03    0.288E-02
RMM:  13    -0.380172183941E+03    0.18494E-05   -0.29487E-06  2495   0.245E-03    0.149E-02
RMM:  14    -0.380172183521E+03    0.41963E-06   -0.12392E-06  2158   0.162E-03
   5 F= -.41525605E+03 E0= -.41491362E+03  d E =-.684858E+00
 Finite differences progress:
  Degree of freedom:   2/  6
  Displacement:        2/  2
  Total:               4/ 12
 bond charge predicted
       N       E                     dE             d eps       ncg     rms          rms(c)
DAV:   1    -0.380173632920E+03   -0.14490E-02   -0.23424E+00  3960   0.265E+00    0.604E-01
RMM:   2    -0.380181307644E+03   -0.76747E-02   -0.46783E-02  3995   0.287E-01    0.978E-01
RMM:   3    -0.380175226802E+03    0.60808E-02   -0.45627E-03  4008   0.868E-02    0.456E-01
RMM:   4    -0.380188909557E+03   -0.13683E-01   -0.49441E-03  3987   0.822E-02    0.134E+00
RMM:   5    -0.380180851289E+03    0.80583E-02   -0.40169E-03  3983   0.678E-02    0.888E-01
RMM:   6    -0.380177490504E+03    0.33608E-02   -0.33839E-03  3982   0.717E-02    0.642E-01
RMM:   7    -0.380175308684E+03    0.21818E-02   -0.15296E-03  3980   0.506E-02    0.260E-01
RMM:   8    -0.380175083132E+03    0.22555E-03   -0.53780E-04  3981   0.296E-02    0.155E-01
RMM:   9    -0.380174922268E+03    0.16086E-03   -0.17042E-04  3973   0.168E-02    0.857E-02
RMM:  10    -0.380174876996E+03    0.45272E-04   -0.37939E-05  3974   0.806E-03    0.341E-02
RMM:  11    -0.380174872891E+03    0.41045E-05   -0.84843E-06  3905   0.370E-03    0.190E-02
RMM:  12    -0.380174874849E+03   -0.19576E-05   -0.48780E-06  3148   0.286E-03    0.193E-02
RMM:  13    -0.380174873961E+03    0.88797E-06   -0.23130E-06  2303   0.218E-03
   6 F= -.41525697E+03 E0= -.41491419E+03  d E =-.685567E+00
 Finite differences progress:
  Degree of freedom:   3/  6
  Displacement:        1/  2
  Total:               5/ 12
 bond charge predicted
       N       E                     dE             d eps       ncg     rms          rms(c)
DAV:   1    -0.380169704762E+03    0.51701E-02   -0.48379E+00  3960   0.383E+00    0.863E-01
RMM:   2    -0.380186949291E+03   -0.17245E-01   -0.78905E-02  3989   0.382E-01    0.162E+00
RMM:   3    -0.380178031323E+03    0.89180E-02   -0.37374E-03  3997   0.744E-02    0.103E+00
RMM:   4    -0.380196206295E+03   -0.18175E-01   -0.67973E-03  3982   0.943E-02    0.176E+00
RMM:   5    -0.380187338671E+03    0.88676E-02   -0.88806E-03  3980   0.115E-01    0.154E+00
RMM:   6    -0.380177819905E+03    0.95188E-02   -0.55197E-03  3985   0.937E-02    0.822E-01
RMM:   7    -0.380174678025E+03    0.31419E-02   -0.30540E-03  3982   0.696E-02    0.385E-01
RMM:   8    -0.380174416774E+03    0.26125E-03   -0.12060E-03  3983   0.435E-02    0.299E-01
RMM:   9    -0.380173921467E+03    0.49531E-03   -0.40770E-04  3986   0.257E-02    0.112E-01
RMM:  10    -0.380173842740E+03    0.78727E-04   -0.82435E-05  3983   0.117E-02    0.402E-02
RMM:  11    -0.380173842387E+03    0.35305E-06   -0.18338E-05  3967   0.545E-03    0.350E-02
RMM:  12    -0.380173847644E+03   -0.52564E-05   -0.11703E-05  3937   0.434E-03    0.401E-02
RMM:  13    -0.380173843814E+03    0.38297E-05   -0.86496E-06  3911   0.388E-03    0.211E-02
RMM:  14    -0.380173843470E+03    0.34424E-06   -0.37898E-06  2728   0.259E-03
   7 F= -.41525641E+03 E0= -.41491417E+03  d E =-.684483E+00
 Finite differences progress:
  Degree of freedom:   3/  6
  Displacement:        2/  2
  Total:               6/ 12
 bond charge predicted
       N       E                     dE             d eps       ncg     rms          rms(c)
DAV:   1    -0.380170616748E+03    0.32271E-02   -0.24264E+00  3960   0.275E+00    0.553E-01
RMM:   2    -0.380179395007E+03   -0.87783E-02   -0.55425E-02  3991   0.312E-01    0.943E-01
RMM:   3    -0.380179110336E+03    0.28467E-03   -0.30836E-03  3979   0.670E-02    0.812E-01
RMM:   4    -0.380180690439E+03   -0.15801E-02   -0.36154E-03  3985   0.697E-02    0.879E-01
RMM:   5    -0.380178699435E+03    0.19910E-02   -0.34956E-03  3983   0.727E-02    0.861E-01
RMM:   6    -0.380175976819E+03    0.27226E-02   -0.19884E-03  3984   0.564E-02    0.499E-01
RMM:   7    -0.380174866591E+03    0.11102E-02   -0.99036E-04  3982   0.399E-02    0.236E-01
RMM:   8    -0.380174778790E+03    0.87801E-04   -0.47114E-04  3983   0.275E-02    0.166E-01
RMM:   9    -0.380174604698E+03    0.17409E-03   -0.17120E-04  3985   0.167E-02    0.665E-02
RMM:  10    -0.380174581785E+03    0.22912E-04   -0.30821E-05  3969   0.712E-03    0.263E-02
RMM:  11    -0.380174581343E+03    0.44263E-06   -0.73565E-06  3671   0.340E-03
   8 F= -.41525740E+03 E0= -.41491483E+03  d E =-.685148E+00
 Finite differences progress:
  Degree of freedom:   4/  6
  Displacement:        1/  2
  Total:               7/ 12
 bond charge predicted
       N       E                     dE             d eps       ncg     rms          rms(c)
DAV:   1    -0.380173396066E+03    0.11857E-02   -0.49629E+00  3960   0.387E+00    0.525E-01
RMM:   2    -0.380179609987E+03   -0.62139E-02   -0.53438E-02  3987   0.352E-01    0.634E-01
RMM:   3    -0.380185744042E+03   -0.61341E-02   -0.55109E-03  3984   0.922E-02    0.110E+00
RMM:   4    -0.380179565327E+03    0.61787E-02   -0.26314E-03  3987   0.585E-02    0.610E-01
RMM:   5    -0.380179775756E+03   -0.21043E-03   -0.29876E-03  3980   0.672E-02    0.641E-01
RMM:   6    -0.380178243930E+03    0.15318E-02   -0.18954E-03  3982   0.561E-02    0.424E-01
RMM:   7    -0.380177298262E+03    0.94567E-03   -0.95384E-04  3987   0.395E-02    0.200E-01
RMM:   8    -0.380177182287E+03    0.11597E-03   -0.33495E-04  3983   0.235E-02    0.126E-01
RMM:   9    -0.380177097412E+03    0.84875E-04   -0.12149E-04  3983   0.144E-02    0.721E-02
RMM:  10    -0.380177063129E+03    0.34284E-04   -0.32240E-05  3976   0.743E-03    0.276E-02
RMM:  11    -0.380177058919E+03    0.42098E-05   -0.63929E-06  3650   0.327E-03    0.108E-02
RMM:  12    -0.380177059695E+03   -0.77621E-06   -0.20555E-06  2248   0.198E-03
   9 F= -.41525891E+03 E0= -.41491644E+03  d E =-.684940E+00
 Finite differences progress:
  Degree of freedom:   4/  6
  Displacement:        2/  2
  Total:               8/ 12
 bond charge predicted
       N       E                     dE             d eps       ncg     rms          rms(c)
DAV:   1    -0.380170835638E+03    0.62233E-02   -0.23966E+00  3960   0.268E+00    0.447E-01
RMM:   2    -0.380180363680E+03   -0.95280E-02   -0.36680E-02  3988   0.270E-01    0.101E+00
RMM:   3    -0.380184487656E+03   -0.41240E-02   -0.62433E-03  3988   0.933E-02    0.128E+00
RMM:   4    -0.380172438770E+03    0.12049E-01   -0.22470E-03  3990   0.610E-02    0.349E-01
RMM:   5    -0.380173074350E+03   -0.63558E-03   -0.13436E-03  3983   0.458E-02    0.402E-01
RMM:   6    -0.380173506869E+03   -0.43252E-03   -0.13274E-03  3983   0.460E-02    0.485E-01
RMM:   7    -0.380172435844E+03    0.10710E-02   -0.83288E-04  3985   0.372E-02    0.206E-01
RMM:   8    -0.380172210254E+03    0.22559E-03   -0.31287E-04  3981   0.224E-02    0.952E-02
RMM:   9    -0.380172175380E+03    0.34875E-04   -0.88408E-05  3982   0.121E-02    0.695E-02
RMM:  10    -0.380172146829E+03    0.28550E-04   -0.25575E-05  3962   0.662E-03    0.303E-02
RMM:  11    -0.380172141896E+03    0.49330E-05   -0.62138E-06  3616   0.322E-03    0.126E-02
RMM:  12    -0.380172144089E+03   -0.21924E-05   -0.26273E-06  2400   0.219E-03    0.189E-02
RMM:  13    -0.380172143802E+03    0.28710E-06   -0.14863E-06  2196   0.180E-03
  10 F= -.41525601E+03 E0= -.41491358E+03  d E =-.684862E+00
 Finite differences progress:
  Degree of freedom:   5/  6
  Displacement:        1/  2
  Total:               9/ 12
 bond charge predicted
       N       E                     dE             d eps       ncg     rms          rms(c)
DAV:   1    -0.380177470819E+03   -0.53267E-02   -0.46136E+00  3960   0.373E+00    0.561E-01
RMM:   2    -0.380197678423E+03   -0.20208E-01   -0.78863E-02  3986   0.367E-01    0.142E+00
RMM:   3    -0.380203529837E+03   -0.58514E-02   -0.11423E-02  3995   0.125E-01    0.172E+00
RMM:   4    -0.380180697336E+03    0.22833E-01   -0.49302E-03  3988   0.870E-02    0.438E-01
RMM:   5    -0.380180481216E+03    0.21612E-03   -0.21983E-03  3982   0.589E-02    0.387E-01
RMM:   6    -0.380181262200E+03   -0.78098E-03   -0.17566E-03  3986   0.547E-02    0.485E-01
RMM:   7    -0.380180363640E+03    0.89856E-03   -0.10159E-03  3984   0.423E-02    0.254E-01
RMM:   8    -0.380180036602E+03    0.32704E-03   -0.41052E-04  3982   0.261E-02    0.108E-01
RMM:   9    -0.380179995931E+03    0.40671E-04   -0.11144E-04  3982   0.137E-02    0.843E-02
RMM:  10    -0.380179954430E+03    0.41501E-04   -0.32865E-05  3966   0.755E-03    0.382E-02
RMM:  11    -0.380179948280E+03    0.61500E-05   -0.94608E-06  3934   0.398E-03    0.214E-02
RMM:  12    -0.380179951893E+03   -0.36131E-05   -0.60318E-06  3549   0.320E-03    0.282E-02
RMM:  13    -0.380179949360E+03    0.25324E-05   -0.29155E-06  2485   0.240E-03    0.158E-02
RMM:  14    -0.380179948533E+03    0.82696E-06   -0.12272E-06  2153   0.159E-03
  11 F= -.41526056E+03 E0= -.41491795E+03  d E =-.685222E+00
 Finite differences progress:
  Degree of freedom:   5/  6
  Displacement:        2/  2
  Total:              10/ 12
 bond charge predicted
       N       E                     dE             d eps       ncg     rms          rms(c)
DAV:   1    -0.380172948928E+03    0.70004E-02   -0.23583E+00  3960   0.267E+00    0.382E-01
RMM:   2    -0.380185377886E+03   -0.12429E-01   -0.32255E-02  3985   0.249E-01    0.123E+00
RMM:   3    -0.380176053592E+03    0.93243E-02   -0.18169E-03  3975   0.576E-02    0.550E-01
RMM:   4    -0.380177735926E+03   -0.16823E-02   -0.15970E-03  3985   0.492E-02    0.656E-01
RMM:   5    -0.380176634378E+03    0.11015E-02   -0.16657E-03  3982   0.517E-02    0.549E-01
RMM:   6    -0.380175476550E+03    0.11578E-02   -0.95253E-04  3985   0.389E-02    0.329E-01
RMM:   7    -0.380175110516E+03    0.36603E-03   -0.49451E-04  3981   0.279E-02    0.193E-01
RMM:   8    -0.380174962720E+03    0.14780E-03   -0.25462E-04  3983   0.207E-02    0.924E-02
RMM:   9    -0.380174934096E+03    0.28624E-04   -0.73997E-05  3983   0.115E-02    0.546E-02
RMM:  10    -0.380174919974E+03    0.14122E-04   -0.17410E-05  3949   0.544E-03    0.204E-02
RMM:  11    -0.380174921608E+03   -0.16343E-05   -0.55392E-06  3403   0.306E-03    0.158E-02
RMM:  12    -0.380174928308E+03   -0.67002E-05   -0.38241E-06  2727   0.274E-03    0.226E-02
RMM:  13    -0.380174928154E+03    0.15462E-06   -0.17558E-06  2238   0.197E-03
  12 F= -.41525703E+03 E0= -.41491424E+03  d E =-.685574E+00
 Finite differences progress:
  Degree of freedom:   6/  6
  Displacement:        1/  2
  Total:              11/ 12
 bond charge predicted
       N       E                     dE             d eps       ncg     rms          rms(c)
DAV:   1    -0.380169611441E+03    0.53169E-02   -0.48374E+00  3960   0.383E+00    0.863E-01
RMM:   2    -0.380188904643E+03   -0.19293E-01   -0.79480E-02  3989   0.383E-01    0.170E+00
RMM:   3    -0.380177778320E+03    0.11126E-01   -0.38326E-03  3998   0.753E-02    0.104E+00
RMM:   4    -0.380193800563E+03   -0.16022E-01   -0.62527E-03  3983   0.919E-02    0.168E+00
RMM:   5    -0.380187575688E+03    0.62249E-02   -0.88290E-03  3980   0.115E-01    0.156E+00
RMM:   6    -0.380177771518E+03    0.98042E-02   -0.55813E-03  3984   0.943E-02    0.823E-01
RMM:   7    -0.380174594916E+03    0.31766E-02   -0.30754E-03  3982   0.699E-02    0.382E-01
RMM:   8    -0.380174340630E+03    0.25429E-03   -0.12074E-03  3983   0.435E-02    0.298E-01
RMM:   9    -0.380173850427E+03    0.49020E-03   -0.40635E-04  3986   0.256E-02    0.112E-01
RMM:  10    -0.380173771127E+03    0.79300E-04   -0.82151E-05  3982   0.116E-02    0.401E-02
RMM:  11    -0.380173770345E+03    0.78134E-06   -0.17924E-05  3968   0.538E-03    0.350E-02
RMM:  12    -0.380173774572E+03   -0.42272E-05   -0.11369E-05  3934   0.428E-03    0.390E-02
RMM:  13    -0.380173770871E+03    0.37016E-05   -0.85719E-06  3907   0.386E-03    0.206E-02
RMM:  14    -0.380173770287E+03    0.58349E-06   -0.37688E-06  2725   0.259E-03
  13 F= -.41525634E+03 E0= -.41491410E+03  d E =-.684481E+00
 Finite differences progress:
  Degree of freedom:   6/  6
  Displacement:        2/  2
  Total:              12/ 12
 Finite differences POTIM=  1.500000000000000E-002
