LAMMPS (29 Aug 2024)
Processor partition = 1
OMP_NUM_THREADS environment is not set. Defaulting to 1 thread. (src/src/comm.cpp:98)
  using 1 OpenMP thread(s) per MPI task
# The LAMMPS input script is designed to perform a Nudged Elastic Band (NEB)
# calculation of the platinum-oxygen (Pt-O₂) dissociation process.
# Zhiwen Bai, 6.2025
# On the basis of the original script by lammps neb example:
# nudged elastic band (NEB) calculation for barrier finding
# To get the stress and strain field of the system.

# Pt O system

#---------------------- Basic settings ----------------------

units		    real
boundary        p p p
atom_style	    charge # q
dimension       3
neighbor        0.6 bin
neigh_modify    delay 5
variable        u uloop 20  # for neb output, it should exceed the number of images.
atom_modify     map array sort 0 0.0 # for neb
#------------------- Read the initial state ------------------

read_data       ./refer/lammps.data
Reading data file ...
  orthogonal box = (0 0 0) to (38.693948 44.679925 60)
  1 by 1 by 1 MPI processor grid
  reading atoms ...
  3074 atoms
  read_data CPU = 0.006 seconds

# ------------------  Potential function ---------------------
pair_style	    reaxff NULL
pair_coeff	    * * CHONiPt.ff O Pt
WARNING: Changed valency_val to valency_boc for X (src/src/REAXFF/reaxff_ffield.cpp:294)
# This file was provided by B.V. Merinov, J.E. Mueller, A.C.T. van Duin, Qi An, and W.A. on 2014, 5
# Goddard III ReaxFF Reactive Force-Field Modeling of the Triple-Phase Boundary in a Solid Oxide Fuel Cell
# J. Phys. Chem. Lett., 2014, 5 (22), pp 4039-4043
# DOI: 10.1021/jz501891y

#------------------------ Output ------------------------------
shell           mkdir results
shell           cd results

compute         peratom all stress/atom NULL
compute         v all voronoi/atom

variable        stress_xx atom -c_peratom[1]/c_v[1]
variable        stress_yy atom -c_peratom[2]/c_v[1]
variable        stress_zz atom -c_peratom[3]/c_v[1]
variable        stress_xy atom -c_peratom[4]/c_v[1]
variable        stress_xz atom -c_peratom[5]/c_v[1]
variable        stress_yz atom -c_peratom[6]/c_v[1]

compute         press_xx1 all reduce sum v_stress_xx
variable        press_xx1 equal c_press_xx1/atoms
compute         press_yy1 all reduce sum v_stress_yy
variable        press_yy1 equal c_press_yy1/atoms
compute         press_zz1 all reduce sum v_stress_zz
variable        press_zz1 equal c_press_zz1/atoms

compute         p all reduce sum c_peratom[1] c_peratom[2] c_peratom[3]
variable        press_xx2 equal -c_p[1]/vol
variable        press_yy2 equal -c_p[2]/vol
variable        press_zz2 equal -c_p[3]/vol

dump            atom_snap all atom 100 dump.neb.$u.text
dump            atom_snap all atom 100 dump.neb.2.text
dump            forece_snap all custom 100 dump.force.$u.xyz id type x y z c_peratom[1] c_peratom[2] c_peratom[3] c_peratom[4] c_peratom[5] c_peratom[6] # 原子力
dump            forece_snap all custom 100 dump.force.2.xyz id type x y z c_peratom[1] c_peratom[2] c_peratom[3] c_peratom[4] c_peratom[5] c_peratom[6] 
dump            stress_snap all custom 100 dump.stress.$u.xyz id type x y z v_stress_xx v_stress_yy v_stress_zz v_stress_xy v_stress_xz v_stress_yz # 原子应力
dump            stress_snap all custom 100 dump.stress.2.xyz id type x y z v_stress_xx v_stress_yy v_stress_zz v_stress_xy v_stress_xz v_stress_yz 

# ------------------ Printing thermodynamic --------------------
thermo_style    custom step temp etotal pxx v_press_xx1 v_press_xx2 pyy v_press_yy1 v_press_yy2 pzz v_press_zz1 v_press_zz2
thermo          100

#---------------------- Neb calculation ------------------------

region          lower block INF INF INF INF INF 5 units box
group           lower region lower
768 atoms in group lower

reset_timestep  0
fix             1 all qeq/reaxff 1 0.0 10.0 1.0e-6 reaxff
fix             2 lower setforce 0.0 0.0 0.0 # fix the boundary

variable        k_spring equal 1.0

timestep        0.2
min_style       quickmin
fix             3 all neb ${k_spring}
fix             3 all neb 1
neb             1E-8 5.0 5000 5000 100 each ../refer/lammps.$u.data
neb             1E-8 5.0 5000 5000 100 each ../refer/lammps.2.data
Switching to 'neigh_modify every 1 delay 0 check yes' setting during minimization
Neighbor list info ...
  update: every = 1 steps, delay = 0 steps, check = yes
  max neighbors/atom: 2000, page size: 100000
  master list distance cutoff = 10.6
  ghost atom cutoff = 10.6
  binsize = 5.3, bins = 8 9 12
  2 neighbor lists, perpetual/occasional/extra = 2 0 0
  (1) pair reaxff, perpetual
      attributes: half, newton off, ghost
      pair build: half/bin/ghost/newtoff
      stencil: full/ghost/bin/3d
      bin: standard
  (2) fix qeq/reaxff, perpetual, copy from (1)
      attributes: half, newton off
      pair build: copy
      stencil: none
      bin: none
Per MPI rank memory allocation (min/avg/max) = 196.5 | 196.5 | 196.5 Mbytes
   Step          Temp          TotEng          Pxx        v_press_xx1    v_press_xx2        Pyy        v_press_yy1    v_press_yy2        Pzz        v_press_zz1    v_press_zz2  
         0   0             -400567.77      186.3696      -1455.0974      186.3696       203.62447     -1445.9005      203.62447      100.71172      372.72266      100.71172    
       100   0.27150684    -400584.41      177.72291     -1493.7802      177.72291      197.15        -1469.2529      197.15         43.942949      345.31332      43.942949    
       200   0.16460621    -400586.42      171.30331     -1515.379       171.30331      193.21518     -1487.6182      193.21518      20.412851      321.31337      20.412851    
       234   0.10458689    -400587.14      169.77258     -1520.4492      169.77258      192.65264     -1491.6477      192.65264      15.832079      315.76925      15.832079    
Loop time of 28.2415 on 1 procs for 234 steps with 3074 atoms

99.9% CPU use with 1 MPI tasks x 1 OpenMP threads

Minimization stats:
  Stopping criterion = energy tolerance
  Energy initial, next-to-last, final = 
     -400567.771860795  -400588.097022751  -400588.100483259
  Force two-norm initial, final = 132.99038 7.8352944
  Force max component initial, final = 75.528766 4.0592315
  Final line search alpha, max atom move = 0 0
  Iterations, force evaluations = 234 234

MPI task timing breakdown:
Section |  min time  |  avg time  |  max time  |%varavg| %total
---------------------------------------------------------------
Pair    | 24.022     | 24.022     | 24.022     |   0.0 | 85.06
Neigh   | 0          | 0          | 0          |   0.0 |  0.00
Comm    | 0.0059822  | 0.0059822  | 0.0059822  |   0.0 |  0.02
Output  | 0.57719    | 0.57719    | 0.57719    |   0.0 |  2.04
Modify  | 3.2232     | 3.2232     | 3.2232     |   0.0 | 11.41
Other   |            | 0.4135     |            |       |  1.46

Nlocal:           3074 ave        3074 max        3074 min
Histogram: 1 0 0 0 0 0 0 0 0 0
Nghost:           6918 ave        6918 max        6918 min
Histogram: 1 0 0 0 0 0 0 0 0 0
Neighs:         500257 ave      500257 max      500257 min
Histogram: 1 0 0 0 0 0 0 0 0 0

Total # of neighbors = 500257
Ave neighs/atom = 162.73813
Neighbor list builds = 0
Dangerous builds = 0
Switching to 'neigh_modify every 1 delay 0 check yes' setting during minimization
Per MPI rank memory allocation (min/avg/max) = 202.8 | 202.8 | 202.8 Mbytes
   Step          Temp          TotEng          Pxx        v_press_xx1    v_press_xx2        Pyy        v_press_yy1    v_press_yy2        Pzz        v_press_zz1    v_press_zz2  
       234   0             -400588.1       169.77231     -1520.6659      169.52565      192.65262     -1491.8905      192.39489      15.83169       314.31239      15.069533    
       240   0.00016486832 -400588.1       169.5234      -1520.6769      169.5234       192.3947      -1491.8989      192.3947       15.06255       314.30529      15.06255     
Loop time of 1.11562 on 1 procs for 6 steps with 3074 atoms

100.0% CPU use with 1 MPI tasks x 1 OpenMP threads

Minimization stats:
  Stopping criterion = energy tolerance
  Energy initial, next-to-last, final = 
     -400588.100484125  -400588.100745803   -400588.10087607
  Force two-norm initial, final = 7.8352382 7.831709
  Force max component initial, final = 4.0591874 4.0566922
  Final line search alpha, max atom move = 0 0
  Iterations, force evaluations = 6 6

MPI task timing breakdown:
Section |  min time  |  avg time  |  max time  |%varavg| %total
---------------------------------------------------------------
Pair    | 0.74293    | 0.74293    | 0.74293    |   0.0 | 66.59
Neigh   | 0          | 0          | 0          |   0.0 |  0.00
Comm    | 0.00018524 | 0.00018524 | 0.00018524 |   0.0 |  0.02
Output  | 0          | 0          | 0          |   0.0 |  0.00
Modify  | 0.094602   | 0.094602   | 0.094602   |   0.0 |  8.48
Other   |            | 0.2779     |            |       | 24.91

Nlocal:           3074 ave        3074 max        3074 min
Histogram: 1 0 0 0 0 0 0 0 0 0
Nghost:           6918 ave        6918 max        6918 min
Histogram: 1 0 0 0 0 0 0 0 0 0
Neighs:         500706 ave      500706 max      500706 min
Histogram: 1 0 0 0 0 0 0 0 0 0

Total # of neighbors = 500706
Ave neighs/atom = 162.88419
Neighbor list builds = 0
Dangerous builds = 0

shell           cd ..

print           "NEB calculation complete"
NEB calculation complete

CITE-CITE-CITE-CITE-CITE-CITE-CITE-CITE-CITE-CITE-CITE-CITE-CITE

Your simulation uses code contributions which should be cited:

- Type Label Framework: https://doi.org/10.1021/acs.jpcb.3c08419

@Article{Gissinger24,
 author = {Jacob R. Gissinger, Ilia Nikiforov, Yaser Afshar, Brendon Waters, Moon-ki Choi, Daniel S. Karls, Alexander Stukowski, Wonpil Im, Hendrik Heinz, Axel Kohlmeyer, and Ellad B. Tadmor},
 title = {Type Label Framework for Bonded Force Fields in LAMMPS},
 journal = {J. Phys. Chem. B},
 year =    2024,
 volume =  128,
 number =  13,
 pages =   {3282–-3297}
}

- pair reaxff command: doi:10.1016/j.parco.2011.08.005

@Article{Aktulga12,
 author = {H. M. Aktulga and J. C. Fogarty and S. A. Pandit and A. Y. Grama},
 title = {Parallel Reactive Molecular Dynamics: {N}umerical Methods and Algorithmic Techniques},
 journal = {Parallel Computing},
 year =    2012,
 volume =  38,
 number =  {4--5},
 pages =   {245--259}
}

- fix qeq/reaxff command: doi:10.1016/j.parco.2011.08.005

@Article{Aktulga12,
 author = {H. M. Aktulga and J. C. Fogarty and S. A. Pandit and A. Y. Grama},
 title = {Parallel Reactive Molecular Dynamics: {N}umerical Methods and Algorithmic Techniques},
 journal = {Parallel Computing},
 year =    2012,
 volume =  38,
 pages =   {245--259}
}

CITE-CITE-CITE-CITE-CITE-CITE-CITE-CITE-CITE-CITE-CITE-CITE-CITE

Total wall time: 0:00:30
