LAMMPS (29 Aug 2024)
Running on 3 partitions of processors
    Step     MaxReplicaForce  MaxAtomForce      GradV0         GradV1         GradVc          EBF            EBR            RDT            RD1            PE1            RD2            PE2            RD3            PE3       
         0   210.02327        20037.305      89.590423      210.02327      89.590423      0              5.9267007      6.214876       0              -400554.08     0.55052516     -400567.77     1              -400560        
       100   22.843361        220.1212       22.678259      22.843361      22.678259      0              11.733616      6.2569029      0              -400561.31     0.54748204     -400586.9      1              -400573.05     
       200   10.332276        26.944545      10.332276      8.4927406      10.332276      0              11.507803      6.2322641      0              -400562.79     0.54780668     -400587.92     1              -400574.3      
       234   7.899974         16.47736       7.899974       7.3991341      7.899974       0              11.44191       6.2258465      0              -400562.99     0.54761303     -400588.1      1              -400574.43     
Climbing replica = 1
    Step     MaxReplicaForce  MaxAtomForce      GradV0         GradV1         GradVc          EBF            EBR            RDT            RD1            PE1            RD2            PE2            RD3            PE3       
       234   7.899875         16.477002      7.899875       7.3993869      7.899875       0              11.441911      6.2258465      0              -400562.99     0.54761303     -400588.1      1              -400574.43     
       240   7.8950978        16.456751      7.8950978      7.0512589      7.8950978      0              11.441846      6.2258224      0              -400562.99     0.5476132      -400588.1      1              -400574.43     
