LAMMPS (29 Aug 2024)
Processor partition = 2
OMP_NUM_THREADS environment is not set. Defaulting to 1 thread. (src/src/comm.cpp:98)
  using 1 OpenMP thread(s) per MPI task
Reading data file ...
  orthogonal box = (0 0 0) to (38.693948 44.679925 60)
  1 by 1 by 1 MPI processor grid
  reading atoms ...
  3074 atoms
  read_data CPU = 0.007 seconds
WARNING: Changed valency_val to valency_boc for X (src/src/REAXFF/reaxff_ffield.cpp:294)
768 atoms in group lower
Switching to 'neigh_modify every 1 delay 0 check yes' setting during minimization
Neighbor list info ...
  update: every = 1 steps, delay = 0 steps, check = yes
  max neighbors/atom: 2000, page size: 100000
  master list distance cutoff = 10.6
  ghost atom cutoff = 10.6
  binsize = 5.3, bins = 8 9 12
  2 neighbor lists, perpetual/occasional/extra = 2 0 0
  (1) pair reaxff, perpetual
      attributes: half, newton off, ghost
      pair build: half/bin/ghost/newtoff
      stencil: full/ghost/bin/3d
      bin: standard
  (2) fix qeq/reaxff, perpetual, copy from (1)
      attributes: half, newton off
      pair build: copy
      stencil: none
      bin: none
Setting up quickmin style minimization ...
  Unit style    : real
  Current step  : 0
Per MPI rank memory allocation (min/avg/max) = 196.5 | 196.5 | 196.5 Mbytes
   Step          Temp          TotEng          Pxx        v_press_xx1    v_press_xx2        Pyy        v_press_yy1    v_press_yy2        Pzz        v_press_zz1    v_press_zz2  
         0   0             -400560         71.757756     -1721.0357      71.757756     -95.070795     -1724.6138     -95.070795      54.922372      243.17327      54.922372    
       100   0.37915885    -400569.57      47.520792     -1747.4898      47.520792      9.337688      -1698.4158      9.337688      -17.437025      202.55626     -17.437025    
       200   0.15165789    -400572.91      39.795578     -1760.2694      39.795578      4.6355528     -1686.9496      4.6355528     -16.617083      205.99598     -16.617083    
       234   0.092814448   -400573.58      38.256331     -1762.7113      38.256331      6.5855335     -1684.297       6.5855335     -14.490486      210.06269     -14.490486    
Loop time of 28.2415 on 1 procs for 234 steps with 3074 atoms

100.0% CPU use with 1 MPI tasks x 1 OpenMP threads

Minimization stats:
  Stopping criterion = energy tolerance
  Energy initial, next-to-last, final = 
     -400560.004567571  -400574.425795371  -400574.428199017
  Force two-norm initial, final = 210.02327 7.3991341
  Force max component initial, final = 141.55319 3.0382766
  Final line search alpha, max atom move = 0 0
  Iterations, force evaluations = 234 234

MPI task timing breakdown:
Section |  min time  |  avg time  |  max time  |%varavg| %total
---------------------------------------------------------------
Pair    | 23.955     | 23.955     | 23.955     |   0.0 | 84.82
Neigh   | 0          | 0          | 0          |   0.0 |  0.00
Comm    | 0.006239   | 0.006239   | 0.006239   |   0.0 |  0.02
Output  | 0.60797    | 0.60797    | 0.60797    |   0.0 |  2.15
Modify  | 3.2784     | 3.2784     | 3.2784     |   0.0 | 11.61
Other   |            | 0.3941     |            |       |  1.40

Nlocal:           3074 ave        3074 max        3074 min
Histogram: 1 0 0 0 0 0 0 0 0 0
Nghost:           6918 ave        6918 max        6918 min
Histogram: 1 0 0 0 0 0 0 0 0 0
Neighs:         500229 ave      500229 max      500229 min
Histogram: 1 0 0 0 0 0 0 0 0 0

Total # of neighbors = 500229
Ave neighs/atom = 162.72902
Neighbor list builds = 0
Dangerous builds = 0
Switching to 'neigh_modify every 1 delay 0 check yes' setting during minimization
Setting up quickmin style minimization ...
  Unit style    : real
  Current step  : 234
Per MPI rank memory allocation (min/avg/max) = 202.8 | 202.8 | 202.8 Mbytes
   Step          Temp          TotEng          Pxx        v_press_xx1    v_press_xx2        Pyy        v_press_yy1    v_press_yy2        Pzz        v_press_zz1    v_press_zz2  
       234   0             -400574.43      38.256462     -1762.7897      38.202763      6.5856775     -1684.3338      6.5290738     -14.490541      207.9523      -15.504222    
       240   0.0001125716  -400574.43      38.197998     -1762.7958      38.197998      6.0026031     -1684.5024      6.0026031     -15.676751      207.75818     -15.676751    
Loop time of 1.11562 on 1 procs for 6 steps with 3074 atoms

100.0% CPU use with 1 MPI tasks x 1 OpenMP threads

Minimization stats:
  Stopping criterion = energy tolerance
  Energy initial, next-to-last, final = 
     -400574.428198893  -400574.428426991  -400574.428532578
  Force two-norm initial, final = 7.3993869 7.0512589
  Force max component initial, final = 3.0387597 3.1143009
  Final line search alpha, max atom move = 0 0
  Iterations, force evaluations = 6 6

MPI task timing breakdown:
Section |  min time  |  avg time  |  max time  |%varavg| %total
---------------------------------------------------------------
Pair    | 0.74091    | 0.74091    | 0.74091    |   0.0 | 66.41
Neigh   | 0          | 0          | 0          |   0.0 |  0.00
Comm    | 0.00019165 | 0.00019165 | 0.00019165 |   0.0 |  0.02
Output  | 0          | 0          | 0          |   0.0 |  0.00
Modify  | 0.096272   | 0.096272   | 0.096272   |   0.0 |  8.63
Other   |            | 0.2782     |            |       | 24.94

Nlocal:           3074 ave        3074 max        3074 min
Histogram: 1 0 0 0 0 0 0 0 0 0
Nghost:           6918 ave        6918 max        6918 min
Histogram: 1 0 0 0 0 0 0 0 0 0
Neighs:         500681 ave      500681 max      500681 min
Histogram: 1 0 0 0 0 0 0 0 0 0

Total # of neighbors = 500681
Ave neighs/atom = 162.87606
Neighbor list builds = 0
Dangerous builds = 0
NEB calculation complete

CITE-CITE-CITE-CITE-CITE-CITE-CITE-CITE-CITE-CITE-CITE-CITE-CITE

Your simulation uses code contributions which should be cited:
- Type Label Framework: https://doi.org/10.1021/acs.jpcb.3c08419
- pair reaxff command: doi:10.1016/j.parco.2011.08.005
- fix qeq/reaxff command: doi:10.1016/j.parco.2011.08.005
The log file lists these citations in BibTeX format.

CITE-CITE-CITE-CITE-CITE-CITE-CITE-CITE-CITE-CITE-CITE-CITE-CITE

Total wall time: 0:00:30
