ITEM: TIMESTEP
1
ITEM: NUMBER OF ATOMS
3074
ITEM: BOX BOUNDS pp pp pp
0.0000000000000000e+00 3.8693948398131120e+01
0.0000000000000000e+00 4.4679925159782847e+01
0.0000000000000000e+00 6.0000000000000000e+01
ITEM: ATOMS id type x y z c_peratom[1] c_peratom[2] c_peratom[3] c_peratom[4] c_peratom[5] c_peratom[6]
1 2 0 0 0 -205121 -205118 11790.5 -0.00012953 0.268402 0.000421265
2 2 3.2245 -8.99625e-14 2.27923 29886.8 29888.9 -82051.6 2.14136e-05 0.369358 0.000157574
3 2 1.61225 -3.32409e-13 4.55799 42285.5 42287.7 9574.03 -0.00011044 0.36925 0.000135674
4 2 2.41837 1.39625 0 -205121 -205118 11790.5 0.000769703 0.268975 0.000705337
5 2 0.806124 1.39625 2.27923 29886.8 29888.9 -82051.6 1.55301e-05 0.368995 0.000514198
6 2 4.03062 1.39625 4.55799 42285.5 42287.7 9574.04 -0.000611232 0.369187 -9.10662e-05
7 2 4.54762e-14 -2.09056e-13 6.83699 43275.5 43277.8 15676.1 0.000139009 0.537904 -0.000450572
8 2 3.2245 2.42401e-13 9.11598 43284.4 43286.5 15717.3 -2.67666e-05 0.368541 -0.000257414
9 2 1.61225 6.45875e-13 11.395 43284.2 43286.3 15715.9 7.05123e-05 0.369015 -0.000110196
10 2 2.41837 1.39625 6.83699 43275.5 43277.8 15676.1 -0.000450106 0.537409 -0.000676897
11 2 0.806124 1.39625 9.11598 43284.4 43286.5 15717.3 -1.01449e-05 0.369067 -0.00073092
12 2 4.03062 1.39625 11.395 43284.2 43286.3 15715.9 0.000367861 0.368949 -1.95847e-05
13 2 -2.91456e-13 5.82917e-13 13.674 43283.9 43286.2 15715.1 -0.000112133 0.537635 0.000138132
14 2 3.2245 -1.18873e-13 15.953 43284.4 43286.5 15717.3 0.000145493 0.369242 0.000106117
15 2 1.61225 -3.48748e-13 18.232 43275.7 43277.8 15676 3.02308e-05 0.36911 7.08687e-05
16 2 2.41837 1.39625 13.674 43283.9 43286.2 15715.1 0.000295946 0.537755 0.000222337
17 2 0.806124 1.39625 15.953 43284.4 43286.5 15717.3 1.01512e-05 0.369095 0.000257731
18 2 4.03062 1.39625 18.232 43275.7 43277.8 15676 0.00048573 0.369175 0.000137101
19 2 2.00017e-13 -5.11154e-13 20.511 42281.2 42283.5 9554.33 1.95358e-05 0.537907 9.41139e-06
20 2 3.2245 7.54351e-14 22.7897 30628.8 30631 -78697 6.72733e-05 0.364346 2.63807e-05
21 2 1.61225 -4.44656e-13 25.0692 -204382 -204380 15126.2 8.10526e-05 0.0952006 8.70512e-05
22 2 2.41837 1.39625 20.511 42281.2 42283.5 9554.33 0.000198289 0.537936 5.1748e-05
23 2 0.806124 1.39625 22.7897 30628.8 30631 -78697 1.69781e-05 0.364315 4.23594e-05
24 2 4.03062 1.39625 25.0692 -204382 -204380 15126.2 0.000237909 0.0952405 -1.03616e-05
25 2 0 2.7925 0 -205121 -205118 11790.5 -0.000438594 0.268591 0.000856989
26 2 3.2245 2.7925 2.27923 29886.8 29888.9 -82051.6 1.84499e-05 0.368913 0.000307152
27 2 1.61225 2.7925 4.55799 42285.5 42287.7 9574.04 -0.000207173 0.36907 0.000268555
28 2 2.41837 4.18874 0 -205121 -205118 11790.5 0.000711886 0.268543 0.000546955
29 2 0.806124 4.18874 2.27923 29886.8 29888.9 -82051.6 -1.00896e-05 0.368994 0.000429514
30 2 4.03062 4.18874 4.55799 42285.5 42287.7 9574.04 -0.000474832 0.368719 2.92138e-06
31 2 -1.73531e-13 2.7925 6.83699 43275.5 43277.8 15676.1 0.00023513 0.537697 -0.000713925
32 2 3.2245 2.7925 9.11598 43284.4 43286.5 15717.3 -8.81403e-05 0.36909 -0.000519869
33 2 1.61225 2.7925 11.395 43284.2 43286.3 15715.9 0.000120138 0.369107 -0.000254105
34 2 2.41837 4.18874 6.83699 43275.5 43277.8 15676.1 -0.000272665 0.537742 -0.000438042
35 2 0.806124 4.18874 9.11598 43284.4 43286.5 15717.3 2.37745e-05 0.369061 -0.000523649
36 2 4.03062 4.18874 11.395 43284.2 43286.3 15715.9 0.0001757 0.369345 2.84331e-05
37 2 2.33684e-13 2.7925 13.674 43283.9 43286.2 15715.1 -0.000144177 0.537715 0.000228545
38 2 3.2245 2.7925 15.953 43284.4 43286.5 15717.3 0.000490803 0.369189 0.000294691
39 2 1.61225 2.7925 18.232 43275.7 43277.8 15676 0.00025367 0.369131 0.000140223
40 2 2.41837 4.18874 13.674 43283.9 43286.2 15715.1 0.000262183 0.537822 0.000258586
41 2 0.806124 4.18874 15.953 43284.4 43286.5 15717.3 2.84419e-05 0.369104 0.000197376
42 2 4.03062 4.18874 18.232 43275.7 43277.8 15676 0.000468194 0.368929 -0.000122801
43 2 -4.26793e-13 2.7925 20.511 42281.2 42283.5 9554.33 -0.000181539 0.537886 7.23803e-05
44 2 3.2245 2.7925 22.7897 30628.8 30631 -78697 0.000106227 0.364277 -1.46488e-05
45 2 1.61225 2.7925 25.0692 -204382 -204380 15126.2 0.000128165 0.0951065 0.000181
46 2 2.41837 4.18874 20.511 42281.2 42283.5 9554.33 0.000229976 0.537797 -5.08096e-05
47 2 0.806124 4.18874 22.7897 30628.8 30631 -78697 -3.03862e-05 0.364305 3.37453e-05
48 2 4.03062 4.18874 25.0692 -204382 -204380 15126.2 -0.000818665 0.0951735 0.000190589
49 2 0 5.58499 0 -205121 -205118 11790.5 -0.000254822 0.268819 0.000291819
50 2 3.2245 5.58499 2.27923 29886.8 29888.9 -82051.6 -3.22483e-05 0.368516 4.56306e-05
51 2 1.61225 5.58499 4.55799 42285.5 42287.7 9574.04 -7.74272e-05 0.369022 9.52715e-06
52 2 2.41837 6.98124 0 -205121 -205118 11790.5 -7.53203e-05 0.268121 -0.000215143
53 2 0.806124 6.98124 2.27923 29886.8 29888.9 -82051.6 -2.02314e-05 0.368994 -0.00014769
54 2 4.03062 6.98124 4.55799 42285.5 42287.7 9574.04 -3.46217e-06 0.368638 -5.43116e-05
55 2 -2.97385e-13 5.58499 6.83699 43275.5 43277.8 15676.1 4.21169e-05 0.537591 -0.000231669
56 2 3.2245 5.58499 9.11598 43284.4 43286.5 15717.3 -4.95013e-05 0.369409 -0.000149473
57 2 1.61225 5.58499 11.395 43284.2 43286.3 15715.9 2.25125e-05 0.369181 6.84487e-05
58 2 2.41837 6.98124 6.83699 43275.5 43277.8 15676.1 0.000100883 0.537884 8.50712e-06
59 2 0.806124 6.98124 9.11598 43284.4 43286.5 15717.3 2.593e-05 0.369086 0.000177396
60 2 4.03062 6.98124 11.395 43284.2 43286.3 15715.9 0.000274505 0.369663 0.000507259
61 2 1.18985e-13 5.58499 13.674 43283.9 43286.2 15715.1 -5.71266e-05 0.537576 0.00027902
62 2 3.2245 5.58499 15.953 43284.4 43286.5 15717.3 0.000415203 0.369285 0.000209905
63 2 1.61225 5.58499 18.232 43275.7 43277.8 15676 0.000146655 0.36904 2.29454e-05
64 2 2.41837 6.98124 13.674 43283.9 43286.2 15715.1 0.000301364 0.538106 0.000506314
65 2 0.806124 6.98124 15.953 43284.4 43286.5 15717.3 5.35849e-06 0.369043 0.000304948
66 2 4.03062 6.98124 18.232 43275.7 43277.8 15676 -0.00173344 0.367946 -0.00119005
67 2 -7.02224e-13 5.58499 20.511 42281.2 42283.5 9554.33 -1.41348e-05 0.538033 -0.000119213
68 2 3.2245 5.58499 22.7897 30628.8 30631 -78697 -0.000486954 0.364119 -0.000144548
69 2 1.61225 5.58499 25.0692 -204382 -204380 15126.2 -0.000636813 0.0951246 6.0379e-06
70 2 2.41837 6.98124 20.511 42281.2 42283.5 9554.33 -0.00116675 0.537244 -0.000596754
71 2 0.806124 6.98124 22.7897 30628.8 30631 -78697 -6.33751e-05 0.364326 -0.000229355
72 2 4.03062 6.98124 25.0692 -204382 -204380 15126.2 -0.000393217 0.0958928 0.000832647
73 2 0 8.37749 0 -205121 -205118 11790.5 0.000183875 0.268912 -0.00041512
74 2 3.2245 8.37749 2.27923 29886.8 29888.9 -82051.6 -8.4554e-05 0.368518 -0.000284371
75 2 1.61225 8.37749 4.55799 42285.5 42287.7 9574.04 3.96128e-05 0.369109 -0.000352064
76 2 2.41837 9.77373 0 -205121 -205118 11790.5 -0.000607032 0.268014 -0.00053031
77 2 0.806124 9.77373 2.27923 29886.8 29888.9 -82051.6 -4.81824e-06 0.368989 -0.000439177
78 2 4.03062 9.77373 4.55799 42285.5 42287.7 9574.04 0.000202489 0.368907 -0.000291767
79 2 -2.0654e-15 8.37749 6.83699 43275.5 43277.8 15676.1 -0.000132915 0.537626 8.13743e-05
80 2 3.2245 8.37749 9.11598 43284.4 43286.5 15717.3 0.000215428 0.3694 0.000355957
81 2 1.61225 8.37749 11.395 43284.2 43286.3 15715.9 0.000162063 0.369301 0.000588855
82 2 2.41837 9.77373 6.83699 43275.5 43277.8 15676.1 0.00021388 0.537862 6.76738e-05
83 2 0.806124 9.77373 9.11598 43284.4 43286.5 15717.3 -6.50778e-06 0.369128 0.00038009
84 2 4.03062 9.77373 11.395 43284.2 43286.3 15715.9 0.000566436 0.369589 0.000687327
85 2 -1.00136e-12 8.37749 13.674 43283.9 43286.2 15715.1 -0.000146015 0.537433 0.000668866
86 2 3.2245 8.37749 15.953 43284.4 43286.5 15717.3 -0.000904719 0.368366 -0.000462481
87 2 1.61225 8.37749 18.232 43275.7 43277.8 15676 -0.000919096 0.368393 -0.000540424
88 2 2.41837 9.77373 13.674 43283.9 43286.2 15715.1 0.00010153 0.537705 0.000536649
89 2 0.806124 9.77373 15.953 43284.4 43286.5 15717.3 -5.10966e-05 0.368972 0.000236251
90 2 4.03062 9.77373 18.232 43275.7 43277.8 15676 -0.00132792 0.368612 -0.000393103
91 2 1.97075e-12 8.37749 20.511 42281.2 42283.5 9554.32 0.00103195 0.538385 -0.00084003
92 2 3.2245 8.37749 22.7897 30628.8 30631 -78697 -0.00028545 0.364455 8.6667e-05
93 2 1.61225 8.37749 25.0692 -204382 -204380 15126.2 -0.000852475 0.0957333 0.000111997
94 2 2.41837 9.77373 20.511 42281.2 42283.5 9554.33 -0.00126768 0.53765 -0.000541252
95 2 0.806124 9.77373 22.7897 30628.8 30631 -78697 4.17582e-05 0.364381 -0.000278354
96 2 4.03062 9.77373 25.0692 -204382 -204380 15126.2 0.00419635 0.0956025 0.000175571
97 2 0 11.17 0 -205121 -205118 11790.5 0.000364171 0.26885 -0.000510717
98 2 3.2245 11.17 2.27923 29886.8 29888.9 -82051.6 -6.87178e-05 0.36877 -0.000324142
99 2 1.61225 11.17 4.55799 42285.5 42287.7 9574.04 7.23407e-05 0.369203 -0.000454002
100 2 2.41837 12.5662 0 -205121 -205118 11790.5 -0.0005455 0.268225 -0.000353168
101 2 0.806124 12.5662 2.27923 29886.8 29888.9 -82051.6 8.32967e-06 0.368986 -0.000327067
102 2 4.03062 12.5662 4.55799 42285.5 42287.7 9574.04 0.000150788 0.369151 -0.000319004
103 2 4.75357e-13 11.17 6.83699 43275.5 43277.8 15676.1 -0.000107095 0.537692 1.30948e-05
104 2 3.2245 11.17 9.11598 43284.4 43286.5 15717.3 0.000417658 0.369639 0.00045586
105 2 1.61225 11.17 11.395 43284.2 43286.3 15715.9 0.000262856 0.369394 0.000634681
106 2 2.41837 12.5662 6.83699 43275.5 43277.8 15676.1 0.000116647 0.537855 -2.39759e-05
107 2 0.806124 12.5662 9.11598 43284.4 43286.5 15717.3 -7.35813e-06 0.369131 0.000168027
108 2 4.03062 12.5662 11.395 43284.2 43286.3 15715.9 7.19666e-05 0.368433 -0.000150441
109 2 -1.48419e-12 11.17 13.674 43283.9 43286.2 15715.1 1.5682e-07 0.537819 0.000626892
110 2 3.2245 11.17 15.953 43284.4 43286.5 15717.3 -0.00184677 0.367043 -0.000838377
111 2 1.61225 11.17 18.232 43275.7 43277.8 15676 -0.00143365 0.368054 -0.00114081
112 2 2.41837 12.5662 13.674 43283.9 43286.2 15715.1 -0.000700425 0.536099 -0.000142949
113 2 0.806124 12.5662 15.953 43284.4 43286.5 15717.3 -9.86483e-05 0.368975 -0.000579924
114 2 4.03062 12.5662 18.232 43275.7 43277.9 15676 0.00176452 0.3713 0.00130929
115 2 3.78978e-12 11.17 20.511 42281.2 42283.5 9554.33 0.000538728 0.53788 -0.00074102
116 2 3.2245 11.17 22.7897 30628.8 30631 -78697 0.0011794 0.365046 0.00040483
117 2 1.61225 11.17 25.0692 -204382 -204380 15126.2 0.00157608 0.096023 0.000665667
118 2 2.41837 12.5662 20.511 42281.2 42283.5 9554.34 0.00130501 0.539517 0.000358242
119 2 0.806124 12.5662 22.7897 30628.8 30631 -78697 6.88605e-05 0.364326 0.000109344
120 2 4.03062 12.5662 25.0692 -204382 -204380 15126.2 0.00398285 0.091666 -0.00205753
121 2 0 13.9625 0 -205121 -205118 11790.5 0.00025455 0.268705 -0.000354017
122 2 3.2245 13.9625 2.27923 29886.8 29888.9 -82051.6 -4.53956e-06 0.369008 -0.00016696
123 2 1.61225 13.9625 4.55799 42285.5 42287.7 9574.04 6.71625e-05 0.369211 -0.000218651
124 2 2.41837 15.3587 0 -205121 -205118 11790.5 -0.000301116 0.268574 -0.000221552
125 2 0.806124 15.3587 2.27923 29886.8 29888.9 -82051.6 6.03509e-06 0.36899 -0.000155459
126 2 4.03062 15.3587 4.55799 42285.5 42287.7 9574.04 0.000135656 0.369226 -0.000101764
127 2 6.64137e-13 13.9625 6.83699 43275.5 43277.8 15676.1 -1.4822e-05 0.537674 -1.5248e-05
128 2 3.2245 13.9625 9.11598 43284.4 43286.5 15717.3 0.000374797 0.369977 0.000267456
129 2 1.61225 13.9625 11.395 43284.2 43286.3 15715.9 0.000124549 0.369191 0.000314615
130 2 2.41837 15.3587 6.83699 43275.5 43277.8 15676.1 0.000106769 0.537954 6.5901e-05
131 2 0.806124 15.3587 9.11598 43284.4 43286.5 15717.3 1.83737e-05 0.369108 0.00011355
132 2 4.03062 15.3587 11.395 43284.2 43286.3 15715.9 -0.000726451 0.366378 -0.00104599
133 2 5.42044e-13 13.9625 13.674 43283.9 43286.2 15715.1 0.000463503 0.538885 -0.00010307
134 2 3.2245 13.9625 15.953 43284.4 43286.5 15717.3 -0.000775014 0.36801 -0.000209118
135 2 1.61225 13.9625 18.232 43275.7 43277.8 15676 -0.000168122 0.369466 -0.000727947
136 2 2.41837 15.3587 13.674 43283.9 43286.2 15715.1 -0.00124654 0.534289 -0.000802807
137 2 0.806124 15.3587 15.953 43284.3 43286.5 15717.3 -0.000101228 0.369058 -0.0011833
138 2 4.03062 15.3587 18.232 43275.7 43277.8 15676 0.00424414 0.375889 0.00253594
139 2 -2.36274e-13 13.9625 20.511 42281.2 42283.5 9554.34 -0.000998367 0.536724 0.000124459
140 2 3.2245 13.9625 22.7897 30628.8 30630.9 -78697 0.00298243 0.365148 0.000228789
141 2 1.61225 13.9625 25.0692 -204382 -204380 15126.2 0.00308673 0.0947851 0.00067025
142 2 2.41837 15.3587 20.511 42281.2 42283.5 9554.34 0.0028335 0.541475 0.000868103
143 2 0.806124 15.3587 22.7897 30628.9 30631 -78697 2.67598e-05 0.364203 0.00015079
144 2 4.03062 15.3587 25.0692 -204382 -204380 15126.2 -0.00603704 0.0879107 -0.00250441
145 2 0 16.755 0 -205121 -205118 11790.5 0.000101251 0.26854 -0.000277139
146 2 3.2245 16.755 2.27923 29886.8 29888.9 -82051.6 3.32819e-05 0.369167 -5.09404e-05
147 2 1.61225 16.755 4.55799 42285.5 42287.7 9574.03 5.73833e-05 0.369182 -5.28928e-06
148 2 2.41837 18.1512 0 -205121 -205118 11790.5 -0.000131302 0.268875 -0.000182344
149 2 0.806124 18.1512 2.27923 29886.8 29888.9 -82051.6 -2.52546e-06 0.368996 -6.38829e-05
150 2 4.03062 18.1512 4.55799 42285.5 42287.7 9574.04 0.000124235 0.369275 3.60741e-05
151 2 5.09591e-13 16.755 6.83699 43275.5 43277.8 15676.1 -1.88004e-05 0.537601 8.40142e-05
152 2 3.2245 16.755 9.11598 43284.4 43286.5 15717.3 0.0002462 0.369996 0.000131757
153 2 1.61225 16.755 11.395 43284.2 43286.3 15715.9 -3.45416e-05 0.368674 6.88123e-05
154 2 2.41837 18.1512 6.83699 43275.5 43277.8 15676.1 0.000113604 0.53809 0.000132223
155 2 0.806124 18.1512 9.11598 43284.4 43286.5 15717.3 1.92866e-05 0.369101 0.00012823
156 2 4.03062 18.1512 11.395 43284.2 43286.3 15715.9 -0.000667243 0.364911 -0.000825864
157 2 3.94399e-12 16.755 13.674 43283.9 43286.2 15715 0.000675719 0.53999 -0.000626514
158 2 3.2245 16.755 15.953 43284.4 43286.5 15717.4 0.000260325 0.369921 0.000289579
159 2 1.61225 16.755 18.232 43275.7 43277.8 15676 0.000715511 0.371116 -3.20247e-05
160 2 2.41837 18.1512 13.674 43283.9 43286.2 15715.1 -0.000842176 0.533626 -0.000616726
161 2 0.806124 18.1512 15.953 43284.3 43286.5 15717.3 -6.11716e-05 0.369056 -0.000736198
162 2 4.03062 18.1512 18.232 43275.7 43277.8 15676 0.00396223 0.379928 0.0020476
163 2 -4.65782e-12 16.755 20.511 42281.2 42283.5 9554.35 -0.00103871 0.536157 0.000384656
164 2 3.2245 16.755 22.7897 30628.8 30630.9 -78697 0.00159946 0.362056 -0.00071381
165 2 1.61225 16.755 25.0692 -204382 -204380 15126.2 0.00185471 0.0926029 0.000150383
166 2 2.41837 18.1512 20.511 42281.2 42283.5 9554.33 0.0022651 0.542646 0.000666621
167 2 0.806124 18.1512 22.7897 30628.9 30631 -78697 1.4541e-05 0.364144 0.000113901
168 2 4.03062 18.1512 25.0692 -204382 -204380 15126.2 -0.00775202 0.0902677 -0.000830414
169 2 0 19.5475 0 -205121 -205118 11790.5 1.39968e-05 0.268418 -0.000144298
170 2 3.2245 19.5475 2.27923 29886.8 29888.9 -82051.6 2.00043e-05 0.369259 -1.13824e-05
171 2 1.61225 19.5475 4.55799 42285.5 42287.7 9574.03 2.14615e-05 0.369173 3.61572e-05
172 2 2.41837 20.9437 0 -205121 -205118 11790.5 -1.06196e-05 0.268996 -3.02332e-05
173 2 0.806124 20.9437 2.27923 29886.8 29888.9 -82051.6 -5.68543e-06 0.368998 2.72227e-07
174 2 4.03062 20.9437 4.55799 42285.5 42287.7 9574.04 6.56312e-06 0.369309 1.89849e-05
175 2 3.00949e-13 19.5475 6.83699 43275.5 43277.8 15676.1 -2.84234e-05 0.537546 8.15662e-05
176 2 3.2245 19.5475 9.11598 43284.4 43286.5 15717.3 0.000100899 0.369825 7.05391e-05
177 2 1.61225 19.5475 11.395 43284.2 43286.3 15715.9 -3.33947e-05 0.368216 1.80599e-05
178 2 2.41837 20.9437 6.83699 43275.5 43277.8 15676.1 -1.07159e-06 0.538158 3.04143e-05
179 2 0.806124 20.9437 9.11598 43284.4 43286.5 15717.3 -2.33029e-06 0.369109 1.70855e-05
180 2 4.03062 20.9437 11.395 43284.2 43286.3 15715.9 -3.01961e-05 0.364444 -2.44483e-05
181 2 6.09395e-12 19.5475 13.674 43283.9 43286.2 15715 0.000344522 0.540456 -0.000338892
182 2 3.2245 19.5475 15.953 43284.4 43286.5 15717.4 0.000243237 0.371095 0.000178966
183 2 1.61225 19.5475 18.232 43275.7 43277.8 15676 0.000361862 0.371707 7.36432e-05
184 2 2.41837 20.9437 13.674 43283.9 43286.2 15715.1 -2.69104e-05 0.533594 -4.08882e-05
185 2 0.806124 20.9437 15.953 43284.4 43286.5 15717.3 2.06929e-05 0.368977 -4.94375e-05
186 2 4.03062 20.9437 18.232 43275.7 43277.8 15676 0.000336308 0.380563 0.000153454
187 2 -7.80554e-12 19.5475 20.511 42281.2 42283.5 9554.35 -0.000403323 0.535989 0.00018826
188 2 3.2245 19.5475 22.7897 30628.8 30630.9 -78697 -8.79728e-05 0.358515 -0.000561523
189 2 1.61225 19.5475 25.0692 -204382 -204380 15126.2 0.000363668 0.0909874 -7.29201e-05
190 2 2.41837 20.9437 20.511 42281.2 42283.5 9554.32 0.000133651 0.542755 4.53007e-05
191 2 0.806124 20.9437 22.7897 30628.9 30631 -78697 -7.16726e-06 0.364137 6.95444e-06
192 2 4.03062 20.9437 25.0692 -204383 -204380 15126.2 -7.93687e-05 0.0925137 -9.12327e-05
193 2 0 22.34 0 -205121 -205118 11790.5 -3.75312e-05 0.268396 0.000107492
194 2 3.2245 22.34 2.27923 29886.8 29888.9 -82051.6 -1.77698e-05 0.369265 1.54426e-05
195 2 1.61225 22.34 4.55799 42285.5 42287.7 9574.03 -2.85732e-05 0.369174 5.34714e-06
196 2 2.41837 23.7362 0 -205121 -205118 11790.5 9.76641e-05 0.268893 0.000167485
197 2 0.806124 23.7362 2.27923 29886.8 29888.9 -82051.6 -3.71604e-06 0.368996 6.18793e-05
198 2 4.03062 23.7362 4.55799 42285.5 42287.7 9574.04 -0.000120101 0.369269 -1.7917e-05
199 2 2.73596e-13 22.34 6.83699 43275.5 43277.8 15676.1 1.91331e-05 0.537547 -3.53019e-05
200 2 3.2245 22.34 9.11598 43284.4 43286.5 15717.3 -7.69641e-05 0.36983 -2.41206e-05
201 2 1.61225 22.34 11.395 43284.2 43286.3 15715.9 6.11607e-05 0.368223 1.71958e-06
202 2 2.41837 23.7362 6.83699 43275.5 43277.8 15676.1 -0.000109559 0.5381 -0.000112707
203 2 0.806124 23.7362 9.11598 43284.4 43286.5 15717.3 -1.34224e-05 0.369112 -0.000123476
204 2 4.03062 23.7362 11.395 43284.2 43286.3 15715.9 0.000659048 0.364758 0.000788848
205 2 6.30329e-12 22.34 13.674 43283.9 43286.2 15715 -0.000187498 0.540483 0.000244854
206 2 3.2245 22.34 15.953 43284.4 43286.5 15717.4 -0.000252073 0.371111 -0.00020078
207 2 1.61225 22.34 18.232 43275.7 43277.8 15676 -0.000359761 0.371645 -0.000114007
208 2 2.41837 23.7362 13.674 43283.9 43286.2 15715.1 0.00082337 0.533544 0.000565925
209 2 0.806124 23.7362 15.953 43284.4 43286.5 15717.3 0.00013237 0.36893 0.000642397
210 2 4.03062 23.7362 18.232 43275.7 43277.8 15676 -0.00366589 0.380592 -0.00190063
211 2 -8.24193e-12 22.34 20.511 42281.2 42283.5 9554.35 0.000265375 0.535965 -0.000157694
212 2 3.2245 22.34 22.7897 30628.8 30630.9 -78697 0.000596926 0.358304 0.000623842
213 2 1.61225 22.34 25.0692 -204382 -204380 15126.2 -0.000294449 0.0909481 0.000126238
214 2 2.41837 23.7362 20.511 42281.2 42283.5 9554.33 -0.00209922 0.542727 -0.000622351
215 2 0.806124 23.7362 22.7897 30628.9 30631 -78697 -3.65223e-05 0.364162 -0.000108174
216 2 4.03062 23.7362 25.0692 -204383 -204380 15126.2 0.00814788 0.0899054 0.000706644
217 2 0 25.1325 0 -205121 -205118 11790.5 -9.85202e-05 0.268492 0.000291686
218 2 3.2245 25.1325 2.27923 29886.8 29888.9 -82051.6 -3.83067e-05 0.369185 5.29659e-05
219 2 1.61225 25.1325 4.55799 42285.5 42287.7 9574.03 -4.43907e-05 0.369191 -4.19873e-06
220 2 2.41837 26.5287 0 -205121 -205118 11790.5 0.000254766 0.268611 0.000264246
221 2 0.806124 26.5287 2.27923 29886.8 29888.9 -82051.6 6.50457e-07 0.368997 0.000139307
222 2 4.03062 26.5287 4.55799 42285.5 42287.7 9574.04 -0.000130908 0.369221 7.57703e-05
223 2 4.53547e-13 25.1325 6.83699 43275.5 43277.8 15676.1 5.24345e-05 0.537605 -0.000103516
224 2 3.2245 25.1325 9.11598 43284.4 43286.5 15717.3 -0.000221863 0.370023 -0.000143676
225 2 1.61225 25.1325 11.395 43284.2 43286.3 15715.9 5.73672e-05 0.368695 -7.17053e-05
226 2 2.41837 26.5287 6.83699 43275.5 43277.8 15676.1 -8.52164e-05 0.537962 -0.00011413
227 2 0.806124 26.5287 9.11598 43284.4 43286.5 15717.3 -7.34898e-06 0.369101 -0.000142992
228 2 4.03062 26.5287 11.395 43284.2 43286.3 15715.9 0.000820473 0.366149 0.00107372
229 2 4.58371e-12 25.1325 13.674 43283.9 43286.2 15715 -0.000613646 0.540129 0.000591043
230 2 3.2245 25.1325 15.953 43284.4 43286.5 15717.4 -0.000322517 0.369994 -0.000327432
231 2 1.61225 25.1325 18.232 43275.7 43277.8 15676 -0.000710622 0.371011 -3.85049e-05
232 2 2.41837 26.5287 13.674 43283.9 43286.2 15715.1 0.00129883 0.534089 0.000861866
233 2 0.806124 26.5287 15.953 43284.3 43286.5 15717.3 0.000168501 0.368952 0.00118671
234 2 4.03062 26.5287 18.232 43275.7 43277.8 15676 -0.00450539 0.376625 -0.00264978
235 2 -5.68884e-12 25.1325 20.511 42281.2 42283.5 9554.35 0.000961239 0.536036 -0.000369427
236 2 3.2245 25.1325 22.7897 30628.8 30630.9 -78697 -0.00134717 0.361745 0.000840502
237 2 1.61225 25.1325 25.0692 -204382 -204380 15126.2 -0.00187747 0.092558 -4.11529e-05
238 2 2.41837 26.5287 20.511 42281.2 42283.5 9554.34 -0.00284836 0.541571 -0.000903343
239 2 0.806124 26.5287 22.7897 30628.9 30631 -78697 -4.96536e-05 0.364202 -0.000149105
240 2 4.03062 26.5287 25.0692 -204382 -204380 15126.2 0.00714824 0.086931 0.00268056
241 2 0 27.925 0 -205121 -205118 11790.5 -0.000208099 0.268676 0.000364995
242 2 3.2245 27.925 2.27923 29886.8 29888.9 -82051.6 1.34906e-07 0.369044 0.000153982
243 2 1.61225 27.925 4.55799 42285.5 42287.7 9574.04 -3.54878e-05 0.369235 0.000160739
244 2 2.41837 29.3212 0 -205121 -205118 11790.5 0.00052353 0.268285 0.000369046
245 2 0.806124 29.3212 2.27923 29886.8 29888.9 -82051.6 5.47667e-06 0.369001 0.000297484
246 2 4.03062 29.3212 4.55799 42285.5 42287.7 9574.04 -0.000123522 0.36917 0.00027705
247 2 6.5235e-13 27.925 6.83699 43275.5 43277.8 15676.1 4.66309e-05 0.537674 -2.50869e-05
248 2 3.2245 27.925 9.11598 43284.4 43286.5 15717.3 -0.00036783 0.370028 -0.000308935
249 2 1.61225 27.925 11.395 43284.2 43286.3 15715.9 -0.000145912 0.369211 -0.000314585
250 2 2.41837 29.3212 6.83699 43275.5 43277.8 15676.1 -9.03715e-05 0.537831 -1.77485e-05
251 2 0.806124 29.3212 9.11598 43284.4 43286.5 15717.3 -8.60616e-06 0.369078 -0.000167096
252 2 4.03062 29.3212 11.395 43284.2 43286.3 15715.9 -1.21181e-05 0.368312 0.000223522
253 2 1.30051e-12 27.925 13.674 43283.9 43286.2 15715.1 -0.000581807 0.539133 0.000178263
254 2 3.2245 27.925 15.953 43284.4 43286.5 15717.3 0.000698307 0.368033 0.000199064
255 2 1.61225 27.925 18.232 43275.7 43277.8 15676 0.000153833 0.369406 0.000688528
256 2 2.41837 29.3212 13.674 43283.9 43286.2 15715.1 0.000745512 0.535915 0.000254805
257 2 0.806124 29.3212 15.953 43284.4 43286.5 15717.3 4.61872e-05 0.369042 0.000706596
258 2 4.03062 29.3212 18.232 43275.7 43277.9 15676 -0.00203315 0.371553 -0.0014059
259 2 -1.4648e-12 27.925 20.511 42281.2 42283.5 9554.34 0.00117772 0.536453 -0.000170288
260 2 3.2245 27.925 22.7897 30628.8 30630.9 -78697 -0.00327449 0.365201 -0.000223823
261 2 1.61225 27.925 25.0692 -204382 -204380 15126.2 -0.00315112 0.0948074 -0.000628718
262 2 2.41837 29.3212 20.511 42281.2 42283.5 9554.34 -0.00146402 0.539618 -0.000428652
263 2 0.806124 29.3212 22.7897 30628.8 30631 -78697 2.31835e-06 0.364279 -0.000126561
264 2 4.03062 29.3212 25.0692 -204382 -204380 15126.2 -0.00431154 0.090929 0.00236392
265 2 0 30.7174 0 -205121 -205118 11790.5 -0.000332854 0.268869 0.000472456
266 2 3.2245 30.7174 2.27923 29886.8 29888.9 -82051.6 7.09216e-05 0.368828 0.000305422
267 2 1.61225 30.7174 4.55799 42285.5 42287.7 9574.04 -5.96129e-05 0.369227 0.000426364
268 2 2.41837 32.1137 0 -205121 -205118 11790.5 0.000640515 0.268078 0.000496503
269 2 0.806124 32.1137 2.27923 29886.8 29888.9 -82051.6 3.83012e-06 0.369006 0.000437458
270 2 4.03062 32.1137 4.55799 42285.5 42287.7 9574.04 -0.00019401 0.368949 0.000300528
271 2 5.61943e-13 30.7174 6.83699 43275.5 43277.8 15676.1 7.53499e-05 0.537676 8.2942e-06
272 2 3.2245 30.7174 9.11598 43284.4 43286.5 15717.3 -0.000454063 0.369665 -0.000473334
273 2 1.61225 30.7174 11.395 43284.2 43286.3 15715.9 -0.000321665 0.369395 -0.000628627
274 2 2.41837 32.1137 6.83699 43275.5 43277.8 15676.1 -0.000227773 0.537799 -4.57452e-05
275 2 0.806124 32.1137 9.11598 43284.4 43286.5 15717.3 -2.3819e-05 0.369058 -0.000348323
276 2 4.03062 32.1137 11.395 43284.2 43286.3 15715.9 -0.000648739 0.36962 -0.000686546
277 2 -1.23591e-12 30.7174 13.674 43283.9 43286.2 15715.1 -0.000138352 0.537997 -0.000565574
278 2 3.2245 30.7174 15.953 43284.4 43286.5 15717.3 0.00196339 0.366818 0.000962264
279 2 1.61225 30.7174 18.232 43275.7 43277.8 15676 0.00149186 0.368002 0.00126331
280 2 2.41837 32.1137 13.674 43283.9 43286.2 15715.1 -0.000122313 0.537683 -0.000523573
281 2 0.806124 32.1137 15.953 43284.4 43286.5 15717.3 -4.24645e-05 0.369109 -0.000181189
282 2 4.03062 32.1137 18.232 43275.7 43277.8 15676 0.00125625 0.368646 0.000348845
283 2 3.32301e-12 30.7174 20.511 42281.2 42283.5 9554.33 -0.000143908 0.537582 0.000616562
284 2 3.2245 30.7174 22.7897 30628.8 30631 -78697 -0.00134678 0.365127 -0.00045815
285 2 1.61225 30.7174 25.0692 -204382 -204380 15126.2 -0.00156008 0.0960569 -0.000769518
286 2 2.41837 32.1137 20.511 42281.2 42283.5 9554.33 0.00126026 0.5377 0.000547966
287 2 0.806124 32.1137 22.7897 30628.8 30631 -78697 8.83255e-05 0.364311 0.000243555
288 2 4.03062 32.1137 25.0692 -204382 -204380 15126.2 -0.00502514 0.0955921 -0.000162082
289 2 0 33.5099 0 -205121 -205118 11790.5 -0.000274108 0.268959 0.000413714
290 2 3.2245 33.5099 2.27923 29886.8 29888.9 -82051.6 8.55837e-05 0.368565 0.000300801
291 2 1.61225 33.5099 4.55799 42285.5 42287.7 9574.04 -7.25234e-05 0.369121 0.000401565
292 2 2.41837 34.9062 0 -205121 -205118 11790.5 0.00013982 0.268126 0.000214701
293 2 0.806124 34.9062 2.27923 29886.8 29888.9 -82051.6 -8.1919e-06 0.369009 0.000215573
294 2 4.03062 34.9062 4.55799 42285.5 42287.7 9574.04 -5.84242e-05 0.368652 0.000107039
295 2 1.20061e-13 33.5099 6.83699 43275.5 43277.8 15676.1 9.55888e-05 0.537602 -6.16861e-05
296 2 3.2245 33.5099 9.11598 43284.4 43286.5 15717.3 -0.000259787 0.36936 -0.000354518
297 2 1.61225 33.5099 11.395 43284.2 43286.3 15715.9 -0.000178805 0.369292 -0.000603131
298 2 2.41837 34.9062 6.83699 43275.5 43277.8 15676.1 -0.000153337 0.537845 6.68883e-06
299 2 0.806124 34.9062 9.11598 43284.4 43286.5 15717.3 -1.45897e-05 0.36906 -0.000214217
300 2 4.03062 34.9062 11.395 43284.2 43286.3 15715.9 -0.000335798 0.369715 -0.000553222
301 2 -1.25194e-12 33.5099 13.674 43283.9 43286.2 15715.1 0.00014582 0.537476 -0.000677954
302 2 3.2245 33.5099 15.953 43284.4 43286.5 15717.3 0.00108253 0.368211 0.000560482
303 2 1.61225 33.5099 18.232 43275.7 43277.8 15676 0.000985702 0.368391 0.000652413
304 2 2.41837 34.9062 13.674 43283.9 43286.2 15715.1 -0.000306007 0.538165 -0.000555251
305 2 0.806124 34.9062 15.953 43284.4 43286.5 15717.3 -2.3818e-05 0.369105 -0.000322426
306 2 4.03062 34.9062 18.232 43275.7 43277.8 15676 0.00210715 0.367758 0.00133021
307 2 2.76223e-12 33.5099 20.511 42281.2 42283.5 9554.32 -0.00107452 0.538374 0.000845635
308 2 3.2245 33.5099 22.7897 30628.8 30631 -78697 0.000236858 0.364504 -0.000119697
309 2 1.61225 33.5099 25.0692 -204382 -204380 15126.2 0.000944358 0.0957247 -0.000205412
310 2 2.41837 34.9062 20.511 42281.2 42283.5 9554.32 0.00136481 0.537176 0.000692118
311 2 0.806124 34.9062 22.7897 30628.8 30631 -78697 2.70883e-05 0.364312 0.00025981
312 2 4.03062 34.9062 25.0692 -204382 -204380 15126.2 0.000310259 0.0960475 -0.000945285
313 2 0 36.3024 0 -205121 -205118 11790.5 9.78374e-05 0.268845 -0.000206321
314 2 3.2245 36.3024 2.27923 29886.8 29888.9 -82051.6 2.49057e-05 0.368498 1.2911e-06
315 2 1.61225 36.3024 4.55799 42285.5 42287.7 9574.04 2.76346e-05 0.369033 5.91784e-05
316 2 2.41837 37.6987 0 -205121 -205118 11790.5 -0.000684281 0.268467 -0.000512195
317 2 0.806124 37.6987 2.27923 29886.8 29888.9 -82051.6 -1.36141e-05 0.369011 -0.000369901
318 2 4.03062 37.6987 4.55799 42285.5 42287.7 9574.04 0.000403324 0.368674 2.4466e-05
319 2 -2.63038e-13 36.3024 6.83699 43275.5 43277.8 15676.1 -2.17206e-05 0.537582 0.000177278
320 2 3.2245 36.3024 9.11598 43284.4 43286.5 15717.3 6.07545e-05 0.369389 0.000140382
321 2 1.61225 36.3024 11.395 43284.2 43286.3 15715.9 4.95335e-05 0.369181 -9.49829e-05
322 2 2.41837 37.6987 6.83699 43275.5 43277.8 15676.1 0.000234406 0.537778 0.000407548
323 2 0.806124 37.6987 9.11598 43284.4 43286.5 15717.3 1.2234e-05 0.369072 0.000457803
324 2 4.03062 37.6987 11.395 43284.2 43286.3 15715.9 -0.000111077 0.369376 -4.09368e-05
325 2 -9.5645e-14 36.3024 13.674 43283.9 43286.2 15715.1 0.000136971 0.537541 -0.000288227
326 2 3.2245 36.3024 15.953 43284.4 43286.5 15717.3 -0.000393838 0.369326 -0.000235702
327 2 1.61225 36.3024 18.232 43275.7 43277.8 15676 -0.000163489 0.369066 -2.82302e-05
328 2 2.41837 37.6987 13.674 43283.9 43286.2 15715.1 -0.000212208 0.537845 -0.000265195
329 2 0.806124 37.6987 15.953 43284.4 43286.5 15717.3 2.66005e-07 0.369085 -0.000191674
330 2 4.03062 37.6987 18.232 43275.7 43277.8 15676 -0.000428403 0.368902 0.000145928
331 2 -3.56795e-13 36.3024 20.511 42281.2 42283.5 9554.33 -0.000177724 0.538115 0.000175203
332 2 3.2245 36.3024 22.7897 30628.8 30631 -78697 0.000603958 0.364096 0.000169947
333 2 1.61225 36.3024 25.0692 -204382 -204380 15126.2 0.000641984 0.0950858 2.23857e-05
334 2 2.41837 37.6987 20.511 42281.2 42283.5 9554.33 -0.000239146 0.537778 6.13996e-05
335 2 0.806124 37.6987 22.7897 30628.8 30631 -78697 -1.61382e-05 0.364315 -2.6478e-05
336 2 4.03062 37.6987 25.0692 -204382 -204380 15126.2 0.00107067 0.0951704 -0.000199698
337 2 0 39.0949 0 -205121 -205118 11790.5 0.000433169 0.268582 -0.000824217
338 2 3.2245 39.0949 2.27923 29886.8 29888.9 -82051.6 -2.22479e-05 0.368849 -0.000302685
339 2 1.61225 39.0949 4.55799 42285.5 42287.7 9574.04 0.000193825 0.369092 -0.000257457
340 2 2.41837 40.4912 0 -205121 -205118 11790.5 -0.000785252 0.268899 -0.00071625
341 2 0.806124 40.4912 2.27923 29886.8 29888.9 -82051.6 3.41062e-06 0.369009 -0.00055351
342 2 4.03062 40.4912 4.55799 42285.5 42287.7 9574.04 0.00064321 0.369121 5.67927e-05
343 2 -2.28007e-13 39.0949 6.83699 43275.5 43277.8 15676.1 -0.000202995 0.537705 0.000659604
344 2 3.2245 39.0949 9.11598 43284.4 43286.5 15717.3 0.000118762 0.369162 0.000517247