ITEM: TIMESTEP
0
ITEM: NUMBER OF ATOMS
3074
ITEM: BOX BOUNDS pp pp pp
0.0000000000000000e+00 3.8693948398131120e+01
0.0000000000000000e+00 4.4679925159782847e+01
0.0000000000000000e+00 6.0000000000000000e+01
ITEM: ATOMS id type x y z c_peratom[1] c_peratom[2] c_peratom[3] c_peratom[4] c_peratom[5] c_peratom[6]
1 2 0 0 0 -205991 -205989 7857.41 2.95964e-05 0.272055 -0.000113605
2 2 3.2245 0 2.279 29869.7 29871.8 -82132 8.19022e-06 0.365895 -2.46844e-05
3 2 1.61225 0 4.55799 43157 43159.1 13509.7 3.90542e-05 0.365916 -2.12106e-05
4 2 2.41837 1.39625 0 -205991 -205989 7857.41 -0.000132358 0.271957 -0.000171639
5 2 0.806124 1.39625 2.279 29869.7 29871.8 -82132 7.21007e-07 0.365949 -9.66799e-05
6 2 4.03062 1.39625 4.55799 43157 43159.1 13509.7 0.000209458 0.365972 5.63583e-05
7 2 0 0 6.83699 43283.9 43286.2 15713.4 -3.45915e-05 0.543946 0.000128133
8 2 3.2245 0 9.11598 43284.2 43286.4 15716 5.94057e-06 0.366119 9.74406e-05
9 2 1.61225 0 11.395 43284.2 43286.4 15716 -7.26008e-05 0.365937 8.48513e-05
10 2 2.41837 1.39625 6.83699 43283.9 43286.2 15713.4 0.00014924 0.544108 0.00021525
11 2 0.806124 1.39625 9.11598 43284.2 43286.4 15716 -2.80708e-06 0.365905 0.000324039
12 2 4.03062 1.39625 11.395 43284.2 43286.4 15716 -0.000388302 0.365837 -0.00011863
13 2 0 0 13.674 43283.9 43286.2 15714.9 9.20236e-05 0.54406 -9.12493e-05
14 2 3.2245 0 15.953 43284.2 43286.4 15716 -0.000195443 0.365719 -9.63335e-05
15 2 1.61225 0 18.232 43284.2 43286.3 15714.5 -2.34136e-05 0.365858 -0.000144281
16 2 2.41837 1.39625 13.674 43283.9 43286.2 15714.9 -0.000355985 0.543888 -0.000189879
17 2 0.806124 1.39625 15.953 43284.2 43286.4 15716 2.27578e-06 0.365924 -0.000315264
18 2 4.03062 1.39625 18.232 43284.2 43286.3 15714.5 0.000310581 0.366028 0.000188972
19 2 0 0 20.511 43156.6 43158.9 13508.6 -3.54144e-05 0.544018 -3.6027e-05
20 2 3.2245 0 22.79 29869.7 29871.8 -82132 0.000152842 0.366004 2.87948e-05
21 2 1.61225 0 25.069 -205991 -205989 7858.56 0.000205705 0.0939226 0.000124547
22 2 2.41837 1.39625 20.511 43156.6 43158.9 13508.6 0.000343523 0.544104 4.99028e-05
23 2 0.806124 1.39625 22.79 29869.7 29871.8 -82132 1.72323e-05 0.365974 5.06297e-05
24 2 4.03062 1.39625 25.069 -205991 -205989 7858.56 0.000589571 0.0937387 -0.000173112
25 2 0 2.7925 0 -205991 -205989 7857.41 7.41716e-05 0.272004 -0.000213637
26 2 3.2245 2.7925 2.279 29869.7 29871.8 -82132 1.79319e-05 0.365997 -5.19219e-05
27 2 1.61225 2.7925 4.55799 43157 43159.1 13509.7 8.03146e-05 0.365965 -3.93499e-05
28 2 2.41837 4.18874 0 -205991 -205989 7857.41 -0.000120743 0.272075 -0.000137247
29 2 0.806124 4.18874 2.279 29869.7 29871.8 -82132 4.25621e-07 0.365951 -8.59738e-05
30 2 4.03062 4.18874 4.55799 43157 43159.1 13509.7 0.000210208 0.366125 5.3402e-05
31 2 0 2.7925 6.83699 43283.9 43286.2 15713.4 -7.93809e-05 0.543981 0.000281513
32 2 3.2245 2.7925 9.11598 43284.2 43286.4 15716 -9.09193e-05 0.365791 0.000132176
33 2 1.61225 2.7925 11.395 43284.2 43286.4 15716 -0.00017303 0.365809 5.17831e-05
34 2 2.41837 4.18874 6.83699 43283.9 43286.2 15713.4 9.17836e-05 0.543955 0.00018688
35 2 0.806124 4.18874 9.11598 43284.2 43286.4 15716 -8.59111e-06 0.365895 0.000208659
36 2 4.03062 4.18874 11.395 43284.2 43286.4 15716 -0.000272025 0.365729 2.42459e-05
37 2 0 2.7925 13.674 43283.9 43286.2 15714.9 0.000169768 0.544068 -0.000263559
38 2 3.2245 2.7925 15.953 43284.2 43286.4 15716 9.55209e-05 0.36612 1.63429e-05
39 2 1.61225 2.7925 18.232 43284.2 43286.3 15714.5 0.000249158 0.36607 -5.5022e-05
40 2 2.41837 4.18874 13.674 43283.9 43286.2 15714.9 2.3058e-06 0.544138 -8.51426e-05
41 2 0.806124 4.18874 15.953 43284.2 43286.4 15716 4.33343e-05 0.365942 -6.73149e-05
42 2 4.03062 4.18874 18.232 43284.2 43286.3 15714.5 0.00037333 0.366113 -4.26666e-05
43 2 0 2.7925 20.511 43156.6 43158.9 13508.6 -0.000250413 0.543931 0.000103643
44 2 3.2245 2.7925 22.79 29869.7 29871.8 -82132 0.000184623 0.365933 -2.28805e-05
45 2 1.61225 2.7925 25.069 -205991 -205989 7858.56 0.000253152 0.0937357 2.76923e-05
46 2 2.41837 4.18874 20.511 43156.6 43158.9 13508.6 0.000283718 0.544022 6.18389e-05
47 2 0.806124 4.18874 22.79 29869.7 29871.8 -82132 -2.71964e-05 0.365966 2.24024e-05
48 2 4.03062 4.18874 25.069 -205991 -205989 7858.56 -0.00104962 0.0936409 -7.81256e-05
49 2 0 5.58499 0 -205991 -205989 7857.41 3.18924e-05 0.271952 -6.02725e-05
50 2 3.2245 5.58499 2.279 29869.7 29871.8 -82132 2.22117e-05 0.366104 4.8104e-06
51 2 1.61225 5.58499 4.55799 43157 43159.1 13509.7 4.15732e-05 0.365999 4.30642e-05
52 2 2.41837 6.98124 0 -205991 -205989 7857.41 4.85912e-05 0.272142 4.84291e-05
53 2 0.806124 6.98124 2.279 29869.7 29871.8 -82132 6.65423e-07 0.36595 5.1672e-05
54 2 4.03062 6.98124 4.55799 43157 43159.1 13509.7 -1.60112e-05 0.366081 -8.02885e-06
55 2 0 5.58499 6.83699 43283.9 43286.2 15713.4 5.59277e-07 0.54408 0.000123973
56 2 3.2245 5.58499 9.11598 43284.2 43286.4 15716 -0.000236923 0.365483 -8.58519e-05
57 2 1.61225 5.58499 11.395 43284.2 43286.4 15716 -5.64465e-05 0.365862 -0.000185572
58 2 2.41837 6.98124 6.83699 43283.9 43286.2 15713.4 -0.000166754 0.54371 -8.71469e-05
59 2 0.806124 6.98124 9.11598 43284.2 43286.4 15716 -4.66086e-06 0.36591 -0.000266614
60 2 4.03062 6.98124 11.395 43284.2 43286.4 15716 0.000436613 0.366342 0.000445035
61 2 0 5.58499 13.674 43283.9 43286.2 15714.9 -0.000146274 0.543843 -4.67785e-05
62 2 3.2245 5.58499 15.953 43284.2 43286.4 15716 0.000698528 0.366424 0.000233863
63 2 1.61225 5.58499 18.232 43284.2 43286.3 15714.5 0.000249506 0.365991 0.000368819
64 2 2.41837 6.98124 13.674 43283.9 43286.2 15714.9 0.000697182 0.544667 0.000318969
65 2 0.806124 6.98124 15.953 43284.2 43286.4 15716 3.8101e-06 0.365897 0.000537249
66 2 4.03062 6.98124 18.232 43284.2 43286.3 15714.5 -0.00150927 0.364861 -0.000986687
67 2 0 5.58499 20.511 43156.6 43158.9 13508.6 2.83796e-05 0.544117 0.000137586
68 2 3.2245 5.58499 22.79 29869.7 29871.8 -82132 -0.000607309 0.365787 -0.000123196
69 2 1.61225 5.58499 25.069 -205991 -205989 7858.56 -0.000829066 0.0937585 -0.000413412
70 2 2.41837 6.98124 20.511 43156.6 43158.9 13508.6 -0.00136347 0.543285 -0.000315287
71 2 0.806124 6.98124 22.79 29869.7 29871.8 -82132 -6.42128e-05 0.365973 -0.000197131
72 2 4.03062 6.98124 25.069 -205991 -205989 7858.56 -0.000798016 0.0946388 0.000710833
73 2 0 8.37749 0 -205991 -205989 7857.41 -6.40213e-05 0.271933 0.000115502
74 2 3.2245 8.37749 2.279 29869.7 29871.8 -82132 3.53786e-05 0.366107 9.82349e-05
75 2 1.61225 8.37749 4.55799 43157 43159.1 13509.7 -3.66309e-05 0.36593 0.000185814
76 2 2.41837 9.77373 0 -205991 -205989 7857.41 0.000217967 0.27216 0.000146573
77 2 0.806124 9.77373 2.279 29869.7 29871.8 -82132 6.7945e-07 0.365946 0.000174833
78 2 4.03062 9.77373 4.55799 43157 43159.1 13509.7 -0.000221898 0.365748 -5.07884e-05
79 2 0 8.37749 6.83699 43283.9 43286.2 15713.4 0.000133157 0.544206 -0.000173895
80 2 3.2245 8.37749 9.11598 43284.2 43286.4 15716 -9.60951e-05 0.365766 -0.000118776
81 2 1.61225 8.37749 11.395 43284.2 43286.4 15716 0.000251855 0.366243 -8.48344e-05
82 2 2.41837 9.77373 6.83699 43283.9 43286.2 15713.4 -0.000305636 0.543587 -0.000263181
83 2 0.806124 9.77373 9.11598 43284.2 43286.4 15716 6.13643e-06 0.365943 -0.000443718
84 2 4.03062 9.77373 11.395 43284.2 43286.4 15716 0.000801388 0.366938 0.000483584
85 2 0 8.37749 13.674 43283.9 43286.2 15714.9 -0.000422516 0.543593 0.000496313
86 2 3.2245 8.37749 15.953 43284.2 43286.4 15716 -0.00046567 0.365229 -0.000400169
87 2 1.61225 8.37749 18.232 43284.2 43286.3 15714.5 -0.000931936 0.365111 -3.92209e-05
88 2 2.41837 9.77373 13.674 43283.9 43286.2 15714.9 0.000472408 0.544371 0.000396552
89 2 0.806124 9.77373 15.953 43284.2 43286.4 15716 -7.91301e-05 0.365791 0.000451482
90 2 4.03062 9.77373 18.232 43284.2 43286.3 15714.5 -0.0012995 0.365196 -0.000289504
91 2 0 8.37749 20.511 43156.6 43158.9 13508.6 0.0011431 0.544582 -0.000518055
92 2 3.2245 8.37749 22.79 29869.7 29871.8 -82132 -0.000388125 0.366109 0.000101242
93 2 1.61225 8.37749 25.069 -205991 -205989 7858.56 -0.00105748 0.0944993 -5.51548e-05
94 2 2.41837 9.77373 20.511 43156.6 43158.9 13508.6 -0.00148859 0.543608 -0.000330007
95 2 0.806124 9.77373 22.79 29869.7 29871.8 -82132 2.88651e-05 0.366015 -0.000188871
96 2 4.03062 9.77373 25.069 -205991 -205989 7858.56 0.00460177 0.0944154 0.000181076
97 2 0 11.17 0 -205991 -205989 7857.41 -0.000123615 0.271929 0.000135687
98 2 3.2245 11.17 2.279 29869.7 29871.8 -82132 3.72451e-05 0.366001 0.000126584
99 2 1.61225 11.17 4.55799 43157 43159.1 13509.7 -8.2649e-05 0.36578 0.000208453
100 2 2.41837 12.5662 0 -205991 -205989 7857.41 0.000239008 0.272163 0.000106994
101 2 0.806124 12.5662 2.279 29869.7 29871.8 -82132 -8.16073e-09 0.365943 0.000175188
102 2 4.03062 12.5662 4.55799 43157 43159.1 13509.7 -0.000248682 0.365402 -5.27968e-05
103 2 0 11.17 6.83699 43283.9 43286.2 15713.4 0.000148219 0.544227 -0.000301658
104 2 3.2245 11.17 9.11598 43284.2 43286.4 15716 0.000284107 0.366595 0.000153338
105 2 1.61225 11.17 11.395 43284.2 43286.4 15716 0.000386728 0.366538 0.000358756
106 2 2.41837 12.5662 6.83699 43283.9 43286.2 15713.4 -0.000169653 0.543794 -0.000199571
107 2 0.806124 12.5662 9.11598 43284.2 43286.4 15716 9.48874e-06 0.365959 -0.000133054
108 2 4.03062 12.5662 11.395 43284.2 43286.4 15716 0.000132295 0.365978 -0.000247037
109 2 0 11.17 13.674 43283.9 43286.2 15714.9 -7.0574e-05 0.544001 0.000652112
110 2 3.2245 11.17 15.953 43284.2 43286.4 15716 -0.00206524 0.36353 -0.00100833
111 2 1.61225 11.17 18.232 43284.2 43286.3 15714.5 -0.00162689 0.364646 -0.0011015
112 2 2.41837 12.5662 13.674 43283.9 43286.2 15714.8 -0.000815354 0.542426 -0.000175797
113 2 0.806124 12.5662 15.953 43284.2 43286.4 15716 -9.79613e-05 0.365773 -0.000711064
114 2 4.03062 12.5662 18.232 43284.2 43286.3 15714.6 0.00152542 0.368086 0.00134198
115 2 0 11.17 20.511 43156.6 43158.9 13508.6 0.000623083 0.544049 -0.000685853
116 2 3.2245 11.17 22.79 29869.7 29871.8 -82132 0.00121939 0.366686 0.000323266
117 2 1.61225 11.17 25.069 -205991 -205989 7858.56 0.00164198 0.0948489 0.000745624
118 2 2.41837 12.5662 20.511 43156.6 43159 13508.6 0.00119853 0.54569 0.000335484
119 2 0.806124 12.5662 22.79 29869.7 29871.8 -82132 5.01621e-05 0.366008 8.29127e-05
120 2 4.03062 12.5662 25.069 -205991 -205989 7858.55 0.00459929 0.0901672 -0.00222475
121 2 0 13.9625 0 -205991 -205989 7857.41 -0.000103547 0.27193 8.34547e-05
122 2 3.2245 13.9625 2.279 29869.7 29871.8 -82132 9.29105e-06 0.365851 7.16125e-05
123 2 1.61225 13.9625 4.55799 43157 43159.1 13509.7 -8.39157e-05 0.365656 6.64278e-05
124 2 2.41837 15.3587 0 -205991 -205989 7857.41 0.000141416 0.272141 6.16944e-05
125 2 0.806124 15.3587 2.279 29869.7 29871.8 -82132 -3.09316e-07 0.365941 9.50751e-05
126 2 4.03062 15.3587 4.55799 43157 43159.1 13509.7 -0.000175627 0.365302 -5.38523e-05
127 2 0 13.9625 6.83699 43283.9 43286.2 15713.4 4.88514e-05 0.544071 -0.000249234
128 2 3.2245 13.9625 9.11598 43284.2 43286.4 15716 0.000507719 0.367306 0.000353091
129 2 1.61225 13.9625 11.395 43284.2 43286.4 15716 0.000220728 0.366298 0.000615781
130 2 2.41837 15.3587 6.83699 43283.9 43286.2 15713.4 1.69972e-05 0.544246 -8.92934e-05
131 2 0.806124 15.3587 9.11598 43284.2 43286.4 15716 5.40831e-06 0.365954 0.000162009
132 2 4.03062 15.3587 11.395 43284.2 43286.4 15716 -0.000661449 0.363713 -0.000858112
133 2 0 13.9625 13.674 43283.9 43286.2 15714.8 0.000646643 0.545321 0.000111648
134 2 3.2245 13.9625 15.953 43284.3 43286.4 15716 -0.00117926 0.364523 -0.000359793
135 2 1.61225 13.9625 18.232 43284.2 43286.3 15714.5 -0.000329036 0.366171 -0.000922019
136 2 2.41837 15.3587 13.674 43283.9 43286.2 15714.8 -0.00148195 0.540333 -0.000634072
137 2 0.806124 15.3587 15.953 43284.2 43286.4 15716 -7.55795e-05 0.365883 -0.00127697
138 2 4.03062 15.3587 18.232 43284.2 43286.3 15714.5 0.00467848 0.373365 0.00277934
139 2 0 13.9625 20.511 43156.6 43159 13508.6 -0.000886386 0.542835 2.11427e-05
140 2 3.2245 13.9625 22.79 29869.7 29871.8 -82132 0.00333931 0.366877 0.00015494
141 2 1.61225 13.9625 25.069 -205991 -205989 7858.56 0.00347901 0.0935392 0.000656882
142 2 2.41837 15.3587 20.511 43156.6 43159 13508.6 0.00310354 0.547894 0.000767698
143 2 0.806124 15.3587 22.79 29869.7 29871.8 -82132 1.0107e-05 0.365976 8.9358e-05
144 2 4.03062 15.3587 25.069 -205991 -205989 7858.55 -0.00625655 0.0862647 -0.00278357
145 2 0 16.755 0 -205991 -205989 7857.41 -4.89055e-05 0.271944 6.53647e-05
146 2 3.2245 16.755 2.279 29869.7 29871.8 -82132 -1.95502e-05 0.365725 9.89961e-06
147 2 1.61225 16.755 4.55799 43157 43159.1 13509.7 -6.02163e-05 0.365613 -6.76608e-05
148 2 2.41837 18.1512 0 -205991 -205989 7857.41 4.78387e-05 0.272095 4.68536e-05
149 2 0.806124 18.1512 2.279 29869.7 29871.8 -82132 2.72151e-07 0.365941 2.96279e-05
150 2 4.03062 18.1512 4.55799 43157 43159.1 13509.7 -9.26295e-05 0.365386 -4.5667e-05
151 2 0 16.755 6.83699 43283.9 43286.2 15713.4 -2.71751e-05 0.543828 -0.000158071
152 2 3.2245 16.755 9.11598 43284.2 43286.4 15716 0.000411134 0.367514 0.000278638
153 2 1.61225 16.755 11.395 43284.2 43286.4 15716 -3.21886e-06 0.365608 0.000461055
154 2 2.41837 18.1512 6.83699 43283.9 43286.2 15713.4 6.47183e-05 0.544664 -3.96188e-05
155 2 0.806124 18.1512 9.11598 43284.2 43286.4 15716 -6.21068e-07 0.365945 0.000174332
156 2 4.03062 18.1512 11.395 43284.2 43286.4 15716 -0.000615651 0.362082 -0.000660588
157 2 0 16.755 13.674 43283.9 43286.2 15714.8 0.000811398 0.546593 -0.000373162
158 2 3.2245 16.755 15.953 43284.3 43286.4 15716 -6.07256e-06 0.366552 0.000204358
159 2 1.61225 16.755 18.232 43284.2 43286.3 15714.6 0.000540861 0.367747 -0.000177954
160 2 2.41837 18.1512 13.674 43283.9 43286.2 15714.8 -0.000949735 0.539623 -0.000478113
161 2 0.806124 18.1512 15.953 43284.2 43286.4 15716 -5.40703e-05 0.36592 -0.000739476
162 2 4.03062 18.1512 18.232 43284.2 43286.3 15714.5 0.00463399 0.37795 0.00228362
163 2 0 16.755 20.511 43156.7 43159 13508.6 -0.00109821 0.542237 0.000323966
164 2 3.2245 16.755 22.79 29869.7 29871.8 -82132 0.00155603 0.3639 -0.000746259
165 2 1.61225 16.755 25.069 -205991 -205989 7858.56 0.00225079 0.0912042 6.60033e-05
166 2 2.41837 18.1512 20.511 43156.6 43158.9 13508.6 0.00268145 0.54929 0.000629708
167 2 0.806124 18.1512 22.79 29869.7 29871.8 -82132 -8.48331e-06 0.365952 8.56259e-05
168 2 4.03062 18.1512 25.069 -205991 -205989 7858.56 -0.00777881 0.08886 -0.000963058
169 2 0 19.5475 0 -205991 -205989 7857.41 -1.21641e-05 0.271964 3.53954e-05
170 2 3.2245 19.5475 2.279 29869.7 29871.8 -82132 -1.42879e-05 0.365656 -4.86361e-06
171 2 1.61225 19.5475 4.55799 43157 43159.1 13509.7 -2.2134e-05 0.365618 -5.50055e-05
172 2 2.41837 20.9437 0 -205991 -205989 7857.41 1.10301e-06 0.272069 4.36992e-06
173 2 0.806124 20.9437 2.279 29869.7 29871.8 -82132 6.87816e-07 0.365942 1.06024e-06
174 2 4.03062 20.9437 4.55799 43157 43159.1 13509.7 -6.49943e-06 0.365449 -6.18092e-06
175 2 0 19.5475 6.83699 43283.9 43286.2 15713.4 -2.42642e-05 0.543652 -5.91938e-05
176 2 3.2245 19.5475 9.11598 43284.2 43286.4 15716 0.00015418 0.367414 9.66843e-05
177 2 1.61225 19.5475 11.395 43284.2 43286.4 15716 -3.93816e-05 0.365023 0.000159243
178 2 2.41837 20.9437 6.83699 43283.9 43286.2 15713.4 1.26907e-06 0.544832 -9.01691e-06
179 2 0.806124 20.9437 9.11598 43284.2 43286.4 15716 -9.01659e-06 0.365943 1.05258e-05
180 2 4.03062 20.9437 11.395 43284.2 43286.4 15716 -2.36158e-05 0.361571 -1.84963e-05
181 2 0 19.5475 13.674 43283.9 43286.2 15714.8 0.000370447 0.547095 -0.000242072
182 2 3.2245 19.5475 15.953 43284.3 43286.4 15716 0.000150457 0.367843 0.000152772
183 2 1.61225 19.5475 18.232 43284.2 43286.3 15714.6 0.000282734 0.368301 2.38809e-05
184 2 2.41837 20.9437 13.674 43283.9 43286.2 15714.8 -3.76637e-05 0.539596 -2.3174e-05
185 2 0.806124 20.9437 15.953 43284.2 43286.4 15716 1.2416e-05 0.365862 -3.76842e-05
186 2 4.03062 20.9437 18.232 43284.2 43286.3 15714.5 0.000366316 0.37881 0.000180457
187 2 0 19.5475 20.511 43156.7 43159 13508.6 -0.000544953 0.541908 0.000186104
188 2 3.2245 19.5475 22.79 29869.6 29871.8 -82132 -0.000191101 0.360393 -0.000548829
189 2 1.61225 19.5475 25.069 -205991 -205989 7858.56 0.000486389 0.0894449 -9.71436e-05
190 2 2.41837 20.9437 20.511 43156.6 43158.9 13508.6 0.000140999 0.549529 4.95841e-05
191 2 0.806124 20.9437 22.79 29869.7 29871.8 -82132 -2.39945e-05 0.36594 6.47497e-06
192 2 4.03062 20.9437 25.069 -205991 -205989 7858.56 -7.66226e-05 0.0912353 -9.89971e-05
193 2 0 22.34 0 -205991 -205989 7857.41 6.90275e-06 0.271967 -2.93879e-05
194 2 3.2245 22.34 2.279 29869.7 29871.8 -82132 1.25111e-05 0.365653 6.39614e-06
195 2 1.61225 22.34 4.55799 43157 43159.1 13509.7 2.22477e-05 0.365617 4.41278e-05
196 2 2.41837 23.7362 0 -205991 -205989 7857.41 -4.4345e-05 0.272093 -4.25888e-05
197 2 0.806124 23.7362 2.279 29869.7 29871.8 -82132 3.93454e-08 0.365944 -2.51567e-05
198 2 4.03062 23.7362 4.55799 43157 43159.1 13509.7 8.11097e-05 0.36539 3.93391e-05
199 2 0 22.34 6.83699 43283.9 43286.2 15713.4 1.60936e-05 0.543631 5.20909e-05
200 2 3.2245 22.34 9.11598 43284.2 43286.4 15716 -0.00011597 0.36742 -6.62924e-05
201 2 1.61225 22.34 11.395 43284.2 43286.4 15716 4.93159e-05 0.365024 -9.98564e-05
202 2 2.41837 23.7362 6.83699 43283.9 43286.2 15713.4 -6.55959e-05 0.544684 2.36338e-05
203 2 0.806124 23.7362 9.11598 43284.2 43286.4 15716 -1.55523e-05 0.365941 -0.000162192
204 2 4.03062 23.7362 11.395 43284.2 43286.4 15716 0.000611572 0.361894 0.000656555
205 2 0 22.34 13.674 43283.9 43286.2 15714.8 -0.000226938 0.547125 0.00018921
206 2 3.2245 22.34 15.953 43284.3 43286.4 15716 -0.000190486 0.367869 -0.000177435
207 2 1.61225 22.34 18.232 43284.2 43286.3 15714.6 -0.000298516 0.368246 -6.07612e-05
208 2 2.41837 23.7362 13.674 43283.9 43286.2 15714.8 0.000903513 0.53953 0.000470799
209 2 0.806124 23.7362 15.953 43284.2 43286.4 15716 0.000120457 0.365803 0.000661611
210 2 4.03062 23.7362 18.232 43284.2 43286.3 15714.5 -0.00437008 0.378708 -0.00211936
211 2 0 22.34 20.511 43156.7 43159 13508.6 0.000352503 0.541865 -0.00015217
212 2 3.2245 22.34 22.79 29869.6 29871.8 -82132 0.000697458 0.360181 0.000611371
213 2 1.61225 22.34 25.069 -205991 -205989 7858.56 -0.00042711 0.0894115 0.000142268
214 2 2.41837 23.7362 20.511 43156.6 43158.9 13508.6 -0.00252917 0.549393 -0.000596229
215 2 0.806124 23.7362 22.79 29869.7 29871.8 -82132 -2.5479e-05 0.365967 -8.16016e-05
216 2 4.03062 23.7362 25.069 -205991 -205989 7858.56 0.00819393 0.0884758 0.00080068
217 2 0 25.1325 0 -205991 -205989 7857.41 3.74675e-05 0.27195 -6.31505e-05
218 2 3.2245 25.1325 2.279 29869.7 29871.8 -82132 2.0554e-05 0.365716 -3.6493e-06
219 2 1.61225 25.1325 4.55799 43157 43159.1 13509.7 6.05635e-05 0.365612 7.47111e-05
220 2 2.41837 26.5287 0 -205991 -205989 7857.41 -0.000135802 0.272139 -5.96252e-05
221 2 0.806124 26.5287 2.279 29869.7 29871.8 -82132 -1.26873e-06 0.365947 -8.57281e-05
222 2 4.03062 26.5287 4.55799 43157 43159.1 13509.7 0.000167552 0.365293 6.03167e-05
223 2 0 25.1325 6.83699 43283.9 43286.2 15713.4 3.34085e-05 0.543773 0.000149696
224 2 3.2245 25.1325 9.11598 43284.2 43286.4 15716 -0.000389985 0.367549 -0.000268561
225 2 1.61225 25.1325 11.395 43284.2 43286.4 15716 5.65758e-06 0.365617 -0.000418861
226 2 2.41837 26.5287 6.83699 43283.9 43286.2 15713.4 -2.58276e-05 0.544275 7.72535e-05
227 2 0.806124 26.5287 9.11598 43284.2 43286.4 15716 -9.43302e-06 0.365928 -0.000178997
228 2 4.03062 26.5287 11.395 43284.2 43286.4 15716 0.0007475 0.36343 0.000917874
229 2 0 25.1325 13.674 43283.9 43286.2 15714.8 -0.000740951 0.54676 0.000361167
230 2 3.2245 25.1325 15.953 43284.3 43286.4 15716 -7.66697e-05 0.366634 -0.000235655
231 2 1.61225 25.1325 18.232 43284.2 43286.3 15714.6 -0.00052454 0.367644 0.000100945
232 2 2.41837 26.5287 13.674 43283.9 43286.2 15714.8 0.00152746 0.540124 0.000710048
233 2 0.806124 26.5287 15.953 43284.2 43286.4 15716 0.00017156 0.365802 0.00126245
234 2 4.03062 26.5287 18.232 43284.2 43286.3 15714.5 -0.00501368 0.374165 -0.00290475
235 2 0 25.1325 20.511 43156.7 43159 13508.6 0.00106078 0.542085 -0.000315384
236 2 3.2245 25.1325 22.79 29869.6 29871.8 -82132 -0.0012696 0.363618 0.000845093
237 2 1.61225 25.1325 25.069 -205991 -205989 7858.56 -0.00227382 0.0911743 1.7614e-05
238 2 2.41837 26.5287 20.511 43156.6 43159 13508.6 -0.00311541 0.54798 -0.000814424
239 2 0.806124 26.5287 22.79 29869.7 29871.8 -82132 -1.22424e-05 0.36598 -8.56008e-05
240 2 4.03062 26.5287 25.069 -205991 -205989 7858.55 0.00745769 0.0852271 0.00292088
241 2 0 27.925 0 -205991 -205989 7857.41 9.03259e-05 0.271933 -7.73345e-05
242 2 3.2245 27.925 2.279 29869.7 29871.8 -82132 -6.39348e-06 0.365839 -6.17395e-05
243 2 1.61225 27.925 4.55799 43157 43159.1 13509.7 8.44083e-05 0.365656 -4.37846e-05
244 2 2.41837 29.3212 0 -205991 -205989 7857.41 -0.000235673 0.272162 -9.93583e-05
245 2 0.806124 29.3212 2.279 29869.7 29871.8 -82132 -1.5808e-06 0.36595 -0.000167507
246 2 4.03062 29.3212 4.55799 43157 43159.1 13509.7 0.000247694 0.365368 6.4532e-05
247 2 0 27.925 6.83699 43283.9 43286.2 15713.4 -2.39214e-05 0.544013 0.000235571
248 2 3.2245 27.925 9.11598 43284.2 43286.4 15716 -0.000522694 0.367385 -0.000383864
249 2 1.61225 27.925 11.395 43284.2 43286.4 15716 -0.000228769 0.366315 -0.000636381
250 2 2.41837 29.3212 6.83699 43283.9 43286.2 15713.4 0.000158574 0.543812 0.000195709
251 2 0.806124 29.3212 9.11598 43284.2 43286.4 15716 7.85359e-06 0.365908 8.88293e-05
252 2 4.03062 29.3212 11.395 43284.2 43286.4 15716 -4.79343e-05 0.365843 0.000298613
253 2 0 27.925 13.674 43283.9 43286.2 15714.8 -0.000751082 0.545649 -5.1762e-05
254 2 3.2245 27.925 15.953 43284.3 43286.4 15716 0.00110316 0.364563 0.000346015
255 2 1.61225 27.925 18.232 43284.2 43286.3 15714.5 0.000340162 0.366129 0.000868738
256 2 2.41837 29.3212 13.674 43283.9 43286.2 15714.8 0.000924028 0.542223 0.000253433
257 2 0.806124 29.3212 15.953 43284.2 43286.4 15716 5.3e-05 0.365887 0.000840218
258 2 4.03062 29.3212 18.232 43284.2 43286.3 15714.6 -0.00175839 0.36836 -0.00142794
259 2 0 27.925 20.511 43156.6 43159 13508.6 0.00111757 0.542546 -6.71105e-05
260 2 3.2245 27.925 22.79 29869.7 29871.8 -82132 -0.00363414 0.366943 -0.000160501
261 2 1.61225 27.925 25.069 -205991 -205989 7858.56 -0.00352587 0.093563 -0.000626395
262 2 2.41837 29.3212 20.511 43156.6 43159 13508.6 -0.00132983 0.545791 -0.000388896
263 2 0.806124 29.3212 22.79 29869.7 29871.8 -82132 2.43766e-05 0.365978 -9.3878e-05
264 2 4.03062 29.3212 25.069 -205991 -205989 7858.55 -0.00497855 0.089396 0.00254109
265 2 0 30.7174 0 -205991 -205989 7857.41 0.000124564 0.27193 -0.000128443
266 2 3.2245 30.7174 2.279 29869.7 29871.8 -82132 -3.60901e-05 0.36599 -0.000124098
267 2 1.61225 30.7174 4.55799 43157 43159.1 13509.7 8.23783e-05 0.365782 -0.000196561
268 2 2.41837 32.1137 0 -205991 -205989 7857.41 -0.000222916 0.272159 -0.000146165
269 2 0.806124 32.1137 2.279 29869.7 29871.8 -82132 -4.90253e-07 0.365951 -0.000180563
270 2 4.03062 32.1137 4.55799 43157 43159.1 13509.7 0.000235296 0.365703 5.44646e-05
271 2 0 30.7174 6.83699 43283.9 43286.2 15713.4 -0.000130252 0.544204 0.000294569
272 2 3.2245 30.7174 9.11598 43284.2 43286.4 15716 -0.000325348 0.36669 -0.000198319
273 2 1.61225 30.7174 11.395 43284.2 43286.4 15716 -0.000393349 0.366546 -0.000432258
274 2 2.41837 32.1137 6.83699 43283.9 43286.2 15713.4 0.000307162 0.543583 0.000281042
275 2 0.806124 32.1137 9.11598 43284.2 43286.4 15716 1.76979e-05 0.365895 0.00042658
276 2 4.03062 32.1137 11.395 43284.2 43286.4 15716 -0.000839655 0.367027 -0.000512179
277 2 0 30.7174 13.674 43283.9 43286.2 15714.9 -9.93481e-05 0.544249 -0.000595523
278 2 3.2245 30.7174 15.953 43284.2 43286.4 15716 0.00225837 0.363276 0.00112603
279 2 1.61225 30.7174 18.232 43284.2 43286.3 15714.5 0.00166458 0.364617 0.00126157
280 2 2.41837 32.1137 13.674 43283.9 43286.2 15714.9 -0.000437105 0.544323 -0.000430616
281 2 0.806124 32.1137 15.953 43284.2 43286.4 15716 -7.2631e-05 0.365959 -0.00036389
282 2 4.03062 32.1137 18.232 43284.2 43286.3 15714.5 0.00129998 0.365209 0.000262676
283 2 0 30.7174 20.511 43156.6 43158.9 13508.6 -0.000224393 0.543719 0.000585844
284 2 3.2245 30.7174 22.79 29869.7 29871.8 -82132 -0.00138534 0.366751 -0.000347667
285 2 1.61225 30.7174 25.069 -205991 -205989 7858.56 -0.0016203 0.0948683 -0.000853937
286 2 2.41837 32.1137 20.511 43156.6 43158.9 13508.6 0.00145683 0.543661 0.000373484
287 2 0.806124 32.1137 22.79 29869.7 29871.8 -82132 7.8545e-05 0.365952 0.000157981
288 2 4.03062 32.1137 25.069 -205991 -205989 7858.56 -0.00554179 0.0944127 -0.000145645
289 2 0 33.5099 0 -205991 -205989 7857.41 8.49974e-05 0.271933 -0.000125403
290 2 3.2245 33.5099 2.279 29869.7 29871.8 -82132 -3.64022e-05 0.366102 -0.000109976
291 2 1.61225 33.5099 4.55799 43157 43159.1 13509.7 3.5401e-05 0.365932 -0.000199243
292 2 2.41837 34.9062 0 -205991 -205989 7857.41 -5.94629e-05 0.272143 -6.99229e-05
293 2 0.806124 34.9062 2.279 29869.7 29871.8 -82132 2.08963e-07 0.365949 -6.9341e-05
294 2 4.03062 34.9062 4.55799 43157 43159.1 13509.7 4.08382e-05 0.366059 3.6634e-06
295 2 0 33.5099 6.83699 43283.9 43286.2 15713.4 -0.00015208 0.544225 0.000196374
296 2 3.2245 33.5099 9.11598 43284.2 43286.4 15716 6.95568e-05 0.36582 0.000121187
297 2 1.61225 33.5099 11.395 43284.2 43286.4 15716 -0.000250693 0.366241 3.85933e-05
298 2 2.41837 34.9062 6.83699 43283.9 43286.2 15713.4 0.000182407 0.543694 0.000125167
299 2 0.806124 34.9062 9.11598 43284.2 43286.4 15716 8.53699e-06 0.365902 0.000314404
300 2 4.03062 34.9062 11.395 43284.2 43286.4 15716 -0.000534251 0.36646 -0.00049218
301 2 0 33.5099 13.674 43283.9 43286.2 15714.9 0.000403445 0.543612 -0.000519302
302 2 3.2245 33.5099 15.953 43284.2 43286.4 15716 0.000679198 0.365005 0.000489137
303 2 1.61225 33.5099 18.232 43284.2 43286.3 15714.5 0.000951442 0.365093 0.000176825
304 2 2.41837 34.9062 13.674 43283.9 43286.2 15714.9 -0.000741451 0.544707 -0.000398758
305 2 0.806124 34.9062 15.953 43284.2 43286.4 15716 -4.58875e-05 0.365942 -0.000585413
306 2 4.03062 34.9062 18.232 43284.2 43286.3 15714.5 0.00186167 0.364611 0.00111959
307 2 0 33.5099 20.511 43156.6 43158.9 13508.6 -0.00122754 0.544573 0.000537282
308 2 3.2245 33.5099 22.79 29869.7 29871.8 -82132 0.000338645 0.366153 -0.000115399
309 2 1.61225 33.5099 25.069 -205991 -205989 7858.56 0.00109941 0.0944997 -5.50287e-05
310 2 2.41837 34.9062 20.511 43156.6 43158.9 13508.6 0.00154998 0.543202 0.000413804
311 2 0.806124 34.9062 22.79 29869.7 29871.8 -82132 8.11426e-06 0.365964 0.000220452
312 2 4.03062 34.9062 25.069 -205991 -205989 7858.56 0.000711492 0.0948334 -0.000816674
313 2 0 36.3024 0 -205991 -205989 7857.41 -9.27253e-06 0.271945 3.55256e-05
314 2 3.2245 36.3024 2.279 29869.7 29871.8 -82132 -2.26769e-05 0.366109 -2.01846e-05
315 2 1.61225 36.3024 4.55799 43157 43159.1 13509.7 -4.24719e-05 0.365999 -6.18309e-05
316 2 2.41837 37.6987 0 -205991 -205989 7857.41 0.000113814 0.272081 0.000114284
317 2 0.806124 37.6987 2.279 29869.7 29871.8 -82132 -2.77329e-07 0.365946 7.44189e-05
318 2 4.03062 37.6987 4.55799 43157 43159.1 13509.7 -0.000196548 0.366134 -5.71191e-05
319 2 0 36.3024 6.83699 43283.9 43286.2 15713.4 -3.50022e-05 0.544111 -8.76588e-05
320 2 3.2245 36.3024 9.11598 43284.2 43286.4 15716 0.000247084 0.365468 0.000135144
321 2 1.61225 36.3024 11.395 43284.2 43286.4 15716 5.94168e-05 0.365861 0.000213569
322 2 2.41837 37.6987 6.83699 43283.9 43286.2 15713.4 -8.14368e-05 0.543942 -0.000165026
323 2 0.806124 37.6987 9.11598 43284.2 43286.4 15716 -2.62848e-06 0.365916 -0.000162374
324 2 4.03062 37.6987 11.395 43284.2 43286.4 15716 0.000231119 0.365749 -2.94195e-05
325 2 0 36.3024 13.674 43283.9 43286.2 15714.9 0.000246121 0.543763 -9.42205e-06
326 2 3.2245 36.3024 15.953 43284.2 43286.4 15716 -0.000740099 0.366436 -0.000287834
327 2 1.61225 36.3024 18.232 43284.2 43286.3 15714.5 -0.000262107 0.365997 -0.000419532
328 2 2.41837 37.6987 13.674 43283.9 43286.2 15714.9 -4.67326e-05 0.544171 6.01603e-05
329 2 0.806124 37.6987 15.953 43284.2 43286.4 15716 1.13908e-05 0.365909 -1.10073e-06
330 2 4.03062 37.6987 18.232 43284.2 43286.3 15714.5 -0.000349165 0.366077 6.01176e-05
331 2 0 36.3024 20.511 43156.6 43158.9 13508.6 -0.000263783 0.544228 -8.73495e-05
332 2 3.2245 36.3024 22.79 29869.7 29871.8 -82132 0.00073444 0.365769 0.000144066
333 2 1.61225 36.3024 25.069 -205991 -205989 7858.56 0.000830913 0.0937502 0.000466287
334 2 2.41837 37.6987 20.511 43156.6 43158.9 13508.6 -0.000245858 0.543994 -7.24384e-05
335 2 0.806124 37.6987 22.79 29869.7 29871.8 -82132 -2.08627e-05 0.365981 -5.79292e-06
336 2 4.03062 37.6987 25.069 -205991 -205989 7858.56 0.00137569 0.0936579 7.27421e-05
337 2 0 39.0949 0 -205991 -205989 7857.41 -7.17156e-05 0.271988 0.000204896
338 2 3.2245 39.0949 2.279 29869.7 29871.8 -82132 -1.79917e-05 0.366007 4.92131e-05
339 2 1.61225 39.0949 4.55799 43157 43159.1 13509.7 -8.04503e-05 0.365964 3.57996e-05
340 2 2.41837 40.4912 0 -205991 -205989 7857.41 0.000135934 0.271965 0.000181112
341 2 0.806124 40.4912 2.279 29869.7 29871.8 -82132 -3.12317e-07 0.365944 0.000102461
342 2 4.03062 40.4912 4.55799 43157 43159.1 13509.7 -0.00022198 0.365986 -5.76216e-05
343 2 0 39.0949 6.83699 43283.9 43286.2 15713.4 7.16352e-05 0.544 -0.000275248
344 2 3.2245 39.0949 9.11598 43284.2 43286.4 15716 0.000107211 0.365755 -0.000111929
345 2 1.61225 39.0949 11.395 43284.2 43286.4 15716 0.000172614 0.365811 -1.83936e-05
346 2 2.41837 40.4912 6.83699 43283.9 43286.2 15713.4 -0.000152951 0.544102 -0.000232549
347 2 0.806124 40.4912 9.11598 43284.2 43286.4 15716 -2.04646e-06 0.365922 -0.000337177
348 2 4.03062 40.4912 11.395 43284.2 43286.4 15716 0.000418437 0.3658 0.000129323
349 2 0 39.0949 13.674 43283.9 43286.2 15714.9 -0.000124608 0.544037 0.000252563
350 2 3.2245 39.0949 15.953 43284.2 43286.4 15716 -0.000177236 0.366176 -5.90002e-05
351 2 1.61225 39.0949 18.232 43284.2 43286.3 15714.5 -0.000247654 0.366068 -7.15089e-06
352 2 2.41837 40.4912 13.674 43283.9 43286.2 15714.9 0.000362332 0.543889 0.00021461
353 2 0.806124 40.4912 15.953 43284.2 43286.4 15716 1.27252e-05 0.365904 0.00032413
354 2 4.03062 40.4912 18.232 43284.2 43286.3 15714.5 -0.000392678 0.366092 -0.000216412
355 2 0 39.0949 20.511 43156.6 43158.9 13508.6 0.000263155 0.543936 -0.000112617