       N       E                     dE             d eps       ncg     rms          rms(c)
DAV:   1     0.430583992101E+04    0.43058E+04   -0.26805E+05   784   0.127E+03
DAV:   2    -0.556109314094E+02   -0.43615E+04   -0.40178E+04   928   0.278E+02
DAV:   3    -0.387390409412E+03   -0.33178E+03   -0.29800E+03   920   0.703E+01
DAV:   4    -0.405560697884E+03   -0.18170E+02   -0.16634E+02  1040   0.148E+01
DAV:   5    -0.406057561079E+03   -0.49686E+00   -0.49311E+00   944   0.250E+00    0.886E+01
RMM:   6    -0.409943593341E+03   -0.38860E+01   -0.83797E+01   787   0.142E+01    0.771E+01
RMM:   7    -0.445265420714E+03   -0.35322E+02   -0.15134E+02   786   0.130E+01    0.723E+01
RMM:   8    -0.505733147954E+03   -0.60468E+02   -0.10654E+02   787   0.121E+01    0.842E+01
RMM:   9    -0.524711276285E+03   -0.18978E+02   -0.10603E+02   785   0.105E+01    0.837E+01
RMM:  10    -0.398486095519E+03    0.12623E+03   -0.43661E+01   785   0.763E+00    0.424E+01
RMM:  11    -0.389681388024E+03    0.88047E+01   -0.29175E+01   787   0.655E+00    0.367E+01
RMM:  12    -0.380203884916E+03    0.94775E+01   -0.90217E+00   788   0.374E+00    0.191E+01
RMM:  13    -0.378913049320E+03    0.12908E+01   -0.24798E+00   788   0.198E+00    0.155E+01
RMM:  14    -0.378052172253E+03    0.86088E+00   -0.89169E-01   788   0.121E+00    0.111E+01
RMM:  15    -0.377688805599E+03    0.36337E+00   -0.34870E-01   789   0.781E-01    0.759E+00
RMM:  16    -0.377650568811E+03    0.38237E-01   -0.30017E-01   788   0.711E-01    0.702E+00
RMM:  17    -0.377687210485E+03   -0.36642E-01   -0.38994E-01   789   0.825E-01    0.763E+00
RMM:  18    -0.377490314257E+03    0.19690E+00   -0.20204E-01   789   0.569E-01    0.513E+00
RMM:  19    -0.377415066354E+03    0.75248E-01   -0.13270E-01   788   0.455E-01    0.444E+00
RMM:  20    -0.377341753672E+03    0.73313E-01   -0.70274E-02   788   0.337E-01    0.243E+00
RMM:  21    -0.377328590502E+03    0.13163E-01   -0.30760E-02   789   0.227E-01    0.152E+00
RMM:  22    -0.377322924816E+03    0.56657E-02   -0.14491E-02   788   0.154E-01    0.153E+00
RMM:  23    -0.377324552374E+03   -0.16276E-02   -0.11089E-02   789   0.134E-01    0.177E+00
RMM:  24    -0.377315821903E+03    0.87305E-02   -0.60155E-03   789   0.991E-02    0.936E-01
RMM:  25    -0.377312465476E+03    0.33564E-02   -0.30088E-03   788   0.680E-02    0.505E-01
RMM:  26    -0.377311105414E+03    0.13601E-02   -0.12461E-03   789   0.437E-02    0.271E-01
RMM:  27    -0.377310923183E+03    0.18223E-03   -0.58860E-04   788   0.297E-02    0.205E-01
RMM:  28    -0.377311265015E+03   -0.34183E-03   -0.38158E-04   788   0.244E-02    0.186E-01
RMM:  29    -0.377311453722E+03   -0.18871E-03   -0.20652E-04   789   0.183E-02    0.140E-01
RMM:  30    -0.377311612405E+03   -0.15868E-03   -0.87878E-05   788   0.116E-02    0.129E-01
RMM:  31    -0.377311832931E+03   -0.22053E-03   -0.66901E-05   787   0.101E-02    0.791E-02
RMM:  32    -0.377312015948E+03   -0.18302E-03   -0.44069E-05   786   0.793E-03    0.436E-02
RMM:  33    -0.377312115464E+03   -0.99516E-04   -0.15333E-05   782   0.456E-03    0.360E-02
RMM:  34    -0.377312184954E+03   -0.69490E-04   -0.65012E-06   631   0.305E-03    0.281E-02
RMM:  35    -0.377312303169E+03   -0.11822E-03   -0.92723E-06   713   0.350E-03    0.253E-02
RMM:  36    -0.377312542621E+03   -0.23945E-03   -0.26584E-05   777   0.542E-03    0.310E-02
RMM:  37    -0.377312656911E+03   -0.11429E-03   -0.12137E-05   680   0.352E-03    0.218E-02
RMM:  38    -0.377312723020E+03   -0.66109E-04   -0.49246E-06   565   0.219E-03    0.145E-02
RMM:  39    -0.377312822651E+03   -0.99631E-04   -0.62430E-06   594   0.236E-03    0.112E-02
RMM:  40    -0.377312925135E+03   -0.10248E-03   -0.83232E-06   611   0.253E-03    0.972E-03
RMM:  41    -0.377312970810E+03   -0.45675E-04   -0.41149E-06   543   0.170E-03    0.777E-03
RMM:  42    -0.377313000085E+03   -0.29275E-04   -0.18194E-06   476   0.116E-03    0.687E-03
RMM:  43    -0.377313015588E+03   -0.15503E-04   -0.60892E-07   376   0.723E-04    0.579E-03
RMM:  44    -0.377313046097E+03   -0.30509E-04   -0.11611E-06   455   0.851E-04    0.320E-03
RMM:  45    -0.377313058603E+03   -0.12506E-04   -0.47421E-07   295   0.602E-04    0.222E-03
RMM:  46    -0.377313067179E+03   -0.85762E-05   -0.33904E-07   291   0.527E-04    0.308E-03
RMM:  47    -0.377313071307E+03   -0.41283E-05   -0.17719E-07   234   0.434E-04    0.160E-03
RMM:  48    -0.377313077176E+03   -0.58684E-05   -0.28653E-07   327   0.524E-04    0.638E-03
RMM:  49    -0.377313079372E+03   -0.21963E-05   -0.84704E-08   184   0.373E-04    0.381E-03
RMM:  50    -0.377313081437E+03   -0.20649E-05   -0.83851E-08   210   0.399E-04    0.310E-03
RMM:  51    -0.377313081835E+03   -0.39857E-06   -0.52229E-08   164   0.377E-04
   1 F= -.41235517E+03 E0= -.41184309E+03  d E =-.102416E+01
       N       E                     dE             d eps       ncg     rms          rms(c)
DAV:   1    -0.377311753882E+03    0.13276E-02   -0.12344E+00   800   0.186E+00    0.246E-01
RMM:   2    -0.377313813652E+03   -0.20598E-02   -0.17745E-02   790   0.187E-01    0.339E-01
RMM:   3    -0.377313318608E+03    0.49504E-03   -0.14974E-03   790   0.479E-02    0.347E-01
RMM:   4    -0.377314369795E+03   -0.10512E-02   -0.68943E-04   792   0.318E-02    0.509E-01
RMM:   5    -0.377313582539E+03    0.78726E-03   -0.48828E-04   790   0.234E-02    0.345E-01
RMM:   6    -0.377313087241E+03    0.49530E-03   -0.40231E-04   789   0.257E-02    0.191E-01
RMM:   7    -0.377313015901E+03    0.71340E-04   -0.17302E-04   788   0.171E-02    0.138E-01
RMM:   8    -0.377312983075E+03    0.32825E-04   -0.93985E-05   790   0.124E-02    0.104E-01
RMM:   9    -0.377312960162E+03    0.22913E-04   -0.50737E-05   788   0.909E-03    0.624E-02
RMM:  10    -0.377312933647E+03    0.26515E-04   -0.20623E-05   783   0.598E-03    0.176E-02
RMM:  11    -0.377312932386E+03    0.12617E-05   -0.38158E-06   553   0.263E-03    0.121E-02
RMM:  12    -0.377312934119E+03   -0.17329E-05   -0.16289E-06   428   0.180E-03    0.189E-02
RMM:  13    -0.377312933142E+03    0.97620E-06   -0.75530E-07   412   0.133E-03
   2 F= -.41235548E+03 E0= -.41184363E+03  d E =-.102370E+01
       N       E                     dE             d eps       ncg     rms          rms(c)
DAV:   1    -0.377308497958E+03    0.44362E-02   -0.49322E+00   792   0.370E+00    0.501E-01
RMM:   2    -0.377317782044E+03   -0.92841E-02   -0.73349E-02   790   0.379E-01    0.734E-01
RMM:   3    -0.377331719691E+03   -0.13938E-01   -0.79150E-03   793   0.103E-01    0.174E+00
RMM:   4    -0.377314578875E+03    0.17141E-01   -0.31346E-03   790   0.661E-02    0.651E-01
RMM:   5    -0.377313621418E+03    0.95746E-03   -0.20283E-03   788   0.559E-02    0.429E-01
RMM:   6    -0.377313779114E+03   -0.15770E-03   -0.14316E-03   789   0.485E-02    0.398E-01
RMM:   7    -0.377313481597E+03    0.29752E-03   -0.72886E-04   788   0.350E-02    0.295E-01
RMM:   8    -0.377313300083E+03    0.18151E-03   -0.40708E-04   790   0.259E-02    0.207E-01
RMM:   9    -0.377313194389E+03    0.10569E-03   -0.21825E-04   788   0.188E-02    0.125E-01
RMM:  10    -0.377313094157E+03    0.10023E-03   -0.88120E-05   788   0.123E-02    0.459E-02
RMM:  11    -0.377313080504E+03    0.13653E-04   -0.16114E-05   785   0.520E-03    0.279E-02
RMM:  12    -0.377313084365E+03   -0.38606E-05   -0.62120E-06   688   0.315E-03    0.377E-02
RMM:  13    -0.377313079703E+03    0.46611E-05   -0.35353E-06   525   0.263E-03    0.182E-02
RMM:  14    -0.377313078321E+03    0.13820E-05   -0.15091E-06   425   0.179E-03    0.990E-03
RMM:  15    -0.377313078467E+03   -0.14527E-06   -0.59673E-07   409   0.107E-03
   3 F= -.41235470E+03 E0= -.41184237E+03  d E =-.102467E+01
       N       E                     dE             d eps       ncg     rms          rms(c)
DAV:   1    -0.377312744583E+03    0.33374E-03   -0.23115E+00   792   0.254E+00    0.479E-01
RMM:   2    -0.377322823261E+03   -0.10079E-01   -0.49944E-02   789   0.286E-01    0.955E-01
RMM:   3    -0.377334746759E+03   -0.11923E-01   -0.87688E-03   791   0.108E-01    0.184E+00
RMM:   4    -0.377315126241E+03    0.19621E-01   -0.27267E-03   790   0.632E-02    0.512E-01
RMM:   5    -0.377314450631E+03    0.67561E-03   -0.14580E-03   788   0.480E-02    0.360E-01
RMM:   6    -0.377315330264E+03   -0.87963E-03   -0.12699E-03   789   0.449E-02    0.510E-01
RMM:   7    -0.377314726072E+03    0.60419E-03   -0.83675E-04   788   0.374E-02    0.336E-01
RMM:   8    -0.377314291483E+03    0.43459E-03   -0.41143E-04   788   0.259E-02    0.171E-01
RMM:   9    -0.377314203313E+03    0.88170E-04   -0.20693E-04   788   0.179E-02    0.112E-01
RMM:  10    -0.377314136845E+03    0.66468E-04   -0.70444E-05   788   0.110E-02    0.500E-02
RMM:  11    -0.377314119774E+03    0.17072E-04   -0.17377E-05   784   0.548E-03    0.255E-02
RMM:  12    -0.377314121455E+03   -0.16810E-05   -0.65245E-06   699   0.329E-03    0.235E-02
RMM:  13    -0.377314120183E+03    0.12712E-05   -0.31305E-06   501   0.249E-03    0.170E-02
RMM:  14    -0.377314119390E+03    0.79306E-06   -0.10370E-06   420   0.146E-03
   4 F= -.41235700E+03 E0= -.41184510E+03  d E =-.102381E+01
       N       E                     dE             d eps       ncg     rms          rms(c)
DAV:   1    -0.377308408305E+03    0.57119E-02   -0.46974E+00   784   0.362E+00    0.640E-01
RMM:   2    -0.377324066229E+03   -0.15658E-01   -0.10140E-01   789   0.409E-01    0.114E+00
RMM:   3    -0.377332441013E+03   -0.83748E-02   -0.12684E-02   791   0.135E-01    0.179E+00
RMM:   4    -0.377314465852E+03    0.17975E-01   -0.36572E-03   792   0.705E-02    0.774E-01
RMM:   5    -0.377313419122E+03    0.10467E-02   -0.28626E-03   788   0.670E-02    0.618E-01
RMM:   6    -0.377314450144E+03   -0.10310E-02   -0.24179E-03   788   0.611E-02    0.698E-01
RMM:   7    -0.377312945352E+03    0.15048E-02   -0.16832E-03   788   0.528E-02    0.389E-01
RMM:   8    -0.377312369213E+03    0.57614E-03   -0.78922E-04   789   0.360E-02    0.216E-01
RMM:   9    -0.377312237186E+03    0.13203E-03   -0.35547E-04   788   0.235E-02    0.153E-01
RMM:  10    -0.377312098686E+03    0.13850E-03   -0.11820E-04   788   0.143E-02    0.640E-02
RMM:  11    -0.377312075469E+03    0.23217E-04   -0.25199E-05   786   0.658E-03    0.423E-02
RMM:  12    -0.377312075689E+03   -0.22003E-06   -0.94137E-06   776   0.382E-03
   5 F= -.41235334E+03 E0= -.41184107E+03  d E =-.102454E+01
       N       E                     dE             d eps       ncg     rms          rms(c)
DAV:   1    -0.377305810234E+03    0.62652E-02   -0.23564E+00   784   0.258E+00    0.434E-01
RMM:   2    -0.377322644313E+03   -0.16834E-01   -0.43095E-02   789   0.272E-01    0.157E+00
RMM:   3    -0.377310742861E+03    0.11901E-01   -0.20189E-03   790   0.602E-02    0.779E-01
RMM:   4    -0.377312478648E+03   -0.17358E-02   -0.16745E-03   788   0.497E-02    0.919E-01
RMM:   5    -0.377312385078E+03    0.93570E-04   -0.29741E-03   788   0.672E-02    0.900E-01
RMM:   6    -0.377310429259E+03    0.19558E-02   -0.15891E-03   790   0.496E-02    0.635E-01
RMM:   7    -0.377308846787E+03    0.15825E-02   -0.86326E-04   788   0.365E-02    0.359E-01
RMM:   8    -0.377308537772E+03    0.30902E-03   -0.52294E-04   788   0.288E-02    0.217E-01
RMM:   9    -0.377308508420E+03    0.29352E-04   -0.28481E-04   788   0.215E-02    0.155E-01
RMM:  10    -0.377308340566E+03    0.16785E-03   -0.97466E-05   788   0.123E-02    0.554E-02
RMM:  11    -0.377308333579E+03    0.69873E-05   -0.15631E-05   782   0.518E-03    0.354E-02
RMM:  12    -0.377308339020E+03   -0.54410E-05   -0.57314E-06   669   0.303E-03    0.396E-02
RMM:  13    -0.377308344213E+03   -0.51929E-05   -0.87854E-06   768   0.391E-03    0.313E-02
RMM:  14    -0.377308343507E+03    0.70588E-06   -0.52840E-06   652   0.306E-03
   6 F= -.41234978E+03 E0= -.41183713E+03  d E =-.102529E+01
       N       E                     dE             d eps       ncg     rms          rms(c)
DAV:   1    -0.377308015947E+03    0.32827E-03   -0.48138E+00   784   0.366E+00    0.952E-01
RMM:   2    -0.377355268340E+03   -0.47252E-01   -0.11693E-01   790   0.442E-01    0.300E+00
RMM:   3    -0.377323775773E+03    0.31493E-01   -0.46258E-03   794   0.897E-02    0.179E+00
RMM:   4    -0.377338076939E+03   -0.14301E-01   -0.36519E-03   793   0.718E-02    0.233E+00
RMM:   5    -0.377346187165E+03   -0.81102E-02   -0.13832E-02   787   0.143E-01    0.263E+00
RMM:   6    -0.377326562956E+03    0.19624E-01   -0.10667E-02   789   0.127E-01    0.158E+00
RMM:   7    -0.377316105463E+03    0.10457E-01   -0.61780E-03   788   0.960E-02    0.812E-01
RMM:   8    -0.377314254396E+03    0.18511E-02   -0.27700E-03   789   0.665E-02    0.444E-01
RMM:   9    -0.377314190148E+03    0.64248E-04   -0.12436E-03   788   0.447E-02    0.330E-01
RMM:  10    -0.377313508663E+03    0.68148E-03   -0.39986E-04   788   0.255E-02    0.109E-01
RMM:  11    -0.377313471322E+03    0.37341E-04   -0.77822E-05   789   0.112E-02    0.891E-02
RMM:  12    -0.377313476000E+03   -0.46781E-05   -0.32574E-05   784   0.714E-03    0.854E-02
RMM:  13    -0.377313472631E+03    0.33691E-05   -0.36056E-05   787   0.769E-03    0.650E-02
RMM:  14    -0.377313459966E+03    0.12665E-04   -0.26275E-05   784   0.660E-03    0.386E-02
RMM:  15    -0.377313456156E+03    0.38101E-05   -0.10304E-05   776   0.416E-03    0.217E-02
RMM:  16    -0.377313456379E+03   -0.22274E-06   -0.30397E-06   498   0.233E-03
   7 F= -.41235620E+03 E0= -.41184466E+03  d E =-.102307E+01
       N       E                     dE             d eps       ncg     rms          rms(c)
DAV:   1    -0.377304236839E+03    0.92193E-02   -0.23675E+00   784   0.262E+00    0.625E-01
RMM:   2    -0.377317233188E+03   -0.12996E-01   -0.79477E-02   789   0.337E-01    0.131E+00
RMM:   3    -0.377316716872E+03    0.51632E-03   -0.44720E-03   792   0.806E-02    0.114E+00
RMM:   4    -0.377322018164E+03   -0.53013E-02   -0.52441E-03   791   0.816E-02    0.150E+00
RMM:   5    -0.377317725511E+03    0.42927E-02   -0.55540E-03   788   0.907E-02    0.139E+00
RMM:   6    -0.377312406130E+03    0.53194E-02   -0.34738E-03   789   0.742E-02    0.827E-01
RMM:   7    -0.377309680102E+03    0.27260E-02   -0.17002E-03   787   0.521E-02    0.381E-01
RMM:   8    -0.377309826930E+03   -0.14683E-03   -0.11067E-03   789   0.420E-02    0.356E-01
RMM:   9    -0.377309220720E+03    0.60621E-03   -0.52844E-04   789   0.284E-02    0.158E-01
RMM:  10    -0.377309075110E+03    0.14561E-03   -0.13658E-04   788   0.148E-02    0.652E-02
RMM:  11    -0.377309061789E+03    0.13320E-04   -0.24880E-05   788   0.619E-03    0.399E-02
RMM:  12    -0.377309060941E+03    0.84866E-06   -0.99643E-06   781   0.396E-03
   8 F= -.41235096E+03 E0= -.41183871E+03  d E =-.102449E+01
       N       E                     dE             d eps       ncg     rms          rms(c)
DAV:   1    -0.377310353408E+03   -0.12916E-02   -0.47850E+00   784   0.346E+00    0.600E-01
RMM:   2    -0.377325688790E+03   -0.15335E-01   -0.98341E-02   790   0.402E-01    0.117E+00
RMM:   3    -0.377331261343E+03   -0.55726E-02   -0.74841E-03   792   0.104E-01    0.159E+00
RMM:   4    -0.377320392883E+03    0.10868E-01   -0.40512E-03   792   0.749E-02    0.891E-01
RMM:   5    -0.377319698659E+03    0.69422E-03   -0.37677E-03   789   0.756E-02    0.822E-01
RMM:   6    -0.377319538707E+03    0.15995E-03   -0.30136E-03   789   0.690E-02    0.781E-01
RMM:   7    -0.377317143186E+03    0.23955E-02   -0.16761E-03   788   0.519E-02    0.379E-01
RMM:   8    -0.377316789852E+03    0.35333E-03   -0.94175E-04   789   0.387E-02    0.271E-01
RMM:   9    -0.377316629052E+03    0.16080E-03   -0.47928E-04   788   0.274E-02    0.186E-01
RMM:  10    -0.377316357692E+03    0.27136E-03   -0.18539E-04   788   0.173E-02    0.577E-02
RMM:  11    -0.377316340251E+03    0.17441E-04   -0.28715E-05   787   0.685E-03    0.336E-02
RMM:  12    -0.377316343257E+03   -0.30066E-05   -0.80148E-06   752   0.352E-03    0.382E-02
RMM:  13    -0.377316339539E+03    0.37186E-05   -0.57067E-06   686   0.312E-03    0.200E-02
RMM:  14    -0.377316338606E+03    0.93241E-06   -0.25206E-06   456   0.225E-03
   9 F= -.41235862E+03 E0= -.41184668E+03  d E =-.102389E+01
       N       E                     dE             d eps       ncg     rms          rms(c)
DAV:   1    -0.377308062944E+03    0.82766E-02   -0.23428E+00   784   0.246E+00    0.401E-01
RMM:   2    -0.377321206740E+03   -0.13144E-01   -0.50996E-02   789   0.281E-01    0.115E+00
RMM:   3    -0.377330195314E+03   -0.89886E-02   -0.70373E-03   791   0.954E-02    0.180E+00
RMM:   4    -0.377311399159E+03    0.18796E-01   -0.37902E-03   789   0.739E-02    0.482E-01
RMM:   5    -0.377310651733E+03    0.74743E-03   -0.15266E-03   788   0.490E-02    0.314E-01
RMM:   6    -0.377310714670E+03   -0.62938E-04   -0.72057E-04   790   0.337E-02    0.330E-01
RMM:   7    -0.377310368368E+03    0.34630E-03   -0.39302E-04   788   0.257E-02    0.212E-01
RMM:   8    -0.377310235891E+03    0.13248E-03   -0.22518E-04   788   0.193E-02    0.135E-01
RMM:   9    -0.377310250525E+03   -0.14634E-04   -0.14916E-04   788   0.154E-02    0.114E-01
RMM:  10    -0.377310161322E+03    0.89203E-04   -0.64626E-05   788   0.102E-02    0.472E-02
RMM:  11    -0.377310142837E+03    0.18486E-04   -0.12351E-05   782   0.469E-03    0.152E-02
RMM:  12    -0.377310144818E+03   -0.19810E-05   -0.29869E-06   490   0.232E-03    0.241E-02
RMM:  13    -0.377310144008E+03    0.80933E-06   -0.19412E-06   442   0.196E-03
  10 F= -.41235180E+03 E0= -.41183953E+03  d E =-.102453E+01
       N       E                     dE             d eps       ncg     rms          rms(c)
DAV:   1    -0.377310895048E+03   -0.75023E-03   -0.46918E+00   800   0.346E+00    0.608E-01
RMM:   2    -0.377338493049E+03   -0.27598E-01   -0.10567E-01   790   0.404E-01    0.173E+00
RMM:   3    -0.377349577360E+03   -0.11084E-01   -0.13229E-02   789   0.132E-01    0.239E+00
RMM:   4    -0.377319277733E+03    0.30300E-01   -0.73188E-03   789   0.104E-01    0.787E-01
RMM:   5    -0.377317396915E+03    0.18808E-02   -0.38370E-03   788   0.774E-02    0.542E-01
RMM:   6    -0.377317523537E+03   -0.12662E-03   -0.20846E-03   790   0.576E-02    0.566E-01
RMM:   7    -0.377316484828E+03    0.10387E-02   -0.10781E-03   788   0.422E-02    0.352E-01
RMM:   8    -0.377316090481E+03    0.39435E-03   -0.56205E-04   788   0.301E-02    0.215E-01
RMM:   9    -0.377316133520E+03   -0.43038E-04   -0.38458E-04   788   0.247E-02    0.185E-01
RMM:  10    -0.377315886434E+03    0.24709E-03   -0.18057E-04   788   0.172E-02    0.710E-02
RMM:  11    -0.377315848898E+03    0.37536E-04   -0.35681E-05   790   0.784E-03    0.254E-02
RMM:  12    -0.377315853132E+03   -0.42338E-05   -0.84432E-06   762   0.365E-03    0.373E-02
RMM:  13    -0.377315851825E+03    0.13067E-05   -0.51964E-06   644   0.294E-03    0.256E-02
RMM:  14    -0.377315849619E+03    0.22065E-05   -0.28938E-06   481   0.241E-03    0.104E-02
RMM:  15    -0.377315850016E+03   -0.39762E-06   -0.95301E-07   410   0.140E-03
  11 F= -.41235834E+03 E0= -.41184642E+03  d E =-.102383E+01
       N       E                     dE             d eps       ncg     rms          rms(c)
DAV:   1    -0.377307423903E+03    0.84257E-02   -0.23363E+00   784   0.243E+00    0.556E-01
RMM:   2    -0.377318692079E+03   -0.11268E-01   -0.60952E-02   790   0.299E-01    0.104E+00
RMM:   3    -0.377322139256E+03   -0.34472E-02   -0.88680E-03   792   0.112E-01    0.143E+00
RMM:   4    -0.377313398090E+03    0.87412E-02   -0.31454E-03   791   0.670E-02    0.840E-01
RMM:   5    -0.377311788125E+03    0.16100E-02   -0.29464E-03   788   0.669E-02    0.650E-01
RMM:   6    -0.377311583638E+03    0.20449E-03   -0.19604E-03   790   0.553E-02    0.608E-01
RMM:   7    -0.377310495808E+03    0.10878E-02   -0.11791E-03   788   0.441E-02    0.350E-01
RMM:   8    -0.377309940878E+03    0.55493E-03   -0.57544E-04   788   0.304E-02    0.171E-01
RMM:   9    -0.377309914942E+03    0.25936E-04   -0.27932E-04   788   0.208E-02    0.143E-01
RMM:  10    -0.377309798382E+03    0.11656E-03   -0.10405E-04   788   0.131E-02    0.675E-02
RMM:  11    -0.377309761054E+03    0.37328E-04   -0.23468E-05   785   0.634E-03    0.229E-02
RMM:  12    -0.377309760798E+03    0.25568E-06   -0.61883E-06   699   0.317E-03
  12 F= -.41235114E+03 E0= -.41183836E+03  d E =-.102556E+01
       N       E                     dE             d eps       ncg     rms          rms(c)
DAV:   1    -0.377307210999E+03    0.25501E-02   -0.48241E+00   792   0.350E+00    0.773E-01
RMM:   2    -0.377321167867E+03   -0.13957E-01   -0.10530E-01   790   0.392E-01    0.109E+00
RMM:   3    -0.377330390513E+03   -0.92226E-02   -0.99477E-03   791   0.122E-01    0.166E+00
RMM:   4    -0.377345404909E+03   -0.15014E-01   -0.11500E-02   790   0.116E-01    0.231E+00
RMM:   5    -0.377320240894E+03    0.25164E-01   -0.74657E-03   788   0.105E-01    0.110E+00
RMM:   6    -0.377317720631E+03    0.25203E-02   -0.46150E-03   789   0.870E-02    0.821E-01
RMM:   7    -0.377315367880E+03    0.23528E-02   -0.23463E-03   789   0.621E-02    0.429E-01
RMM:   8    -0.377314566953E+03    0.80093E-03   -0.11207E-03   788   0.418E-02    0.236E-01
RMM:   9    -0.377314360728E+03    0.20622E-03   -0.43072E-04   790   0.264E-02    0.178E-01
RMM:  10    -0.377314184548E+03    0.17618E-03   -0.14951E-04   788   0.158E-02    0.825E-02
RMM:  11    -0.377314160098E+03    0.24450E-04   -0.37671E-05   787   0.783E-03    0.537E-02
RMM:  12    -0.377314157458E+03    0.26404E-05   -0.14347E-05   782   0.478E-03    0.449E-02
RMM:  13    -0.377314149389E+03    0.80685E-05   -0.88632E-06   774   0.380E-03    0.220E-02
RMM:  14    -0.377314147851E+03    0.15377E-05   -0.35031E-06   520   0.256E-03    0.140E-02
RMM:  15    -0.377314147518E+03    0.33347E-06   -0.12759E-06   416   0.165E-03
  13 F= -.41235696E+03 E0= -.41184555E+03  d E =-.102282E+01
