<?xml version="1.0" encoding="ISO-8859-1"?>
<modeling>
 <generator>
  <i name="program" type="string">vasp </i>
  <i name="version" type="string">5.4.4.18Apr17-6-g9f103f2a35  </i>
  <i name="subversion" type="string">(build Mar 22 2023 16:46:20) complex            parallel </i>
  <i name="platform" type="string">LinuxIFC </i>
  <i name="date" type="string">2025 07 24 </i>
  <i name="time" type="string">13:02:35 </i>
 </generator>
 <incar>
  <i type="string" name="SYSTEM">Pt111 O2 adsorption system</i>
  <i type="int" name="ISTART">     0</i>
  <i type="string" name="PREC">normal</i>
  <i type="string" name="ALGO"> Fast</i>
  <i type="int" name="ICHARG">     1</i>
  <i type="int" name="IBRION">     5</i>
  <i type="int" name="NFREE">     2</i>
  <i name="EDIFF">      0.00000100</i>
  <i name="EDIFFG">     -0.02000000</i>
  <i type="int" name="NSW">     1</i>
  <i type="int" name="ISYM">     0</i>
  <i name="ENCUT">    450.00000000</i>
  <i name="POTIM">      0.01500000</i>
  <i type="string" name="LREAL"> Auto</i>
  <i type="int" name="ISMEAR">     0</i>
  <i name="SIGMA">      0.10000000</i>
  <i type="int" name="NWRITE">     3</i>
  <i type="logical" name="LWAVE"> F  </i>
  <i type="logical" name="LCHARG"> F  </i>
  <v type="int" name="KPOINT_BSE">    -1     0     0     0</v>
  <i type="string" name="GGA"> PE</i>
  <i type="logical" name="LDIPOL"> T  </i>
  <i type="int" name="IDIPOL">     3</i>
 </incar>
 <structure name="primitive_cell" >
  <crystal>
   <varray name="basis" >
    <v>       9.71779202       0.00000000       0.00000000 </v>
    <v>       0.00000000      11.22113968       0.00000000 </v>
    <v>       0.00000000       0.00000000      25.00000000 </v>
   </varray>
   <i name="volume">   2726.11754094 </i>
   <varray name="rec_basis" >
    <v>       0.10290403       0.00000000       0.00000000 </v>
    <v>       0.00000000       0.08911751       0.00000000 </v>
    <v>       0.00000000       0.00000000       0.04000000 </v>
   </varray>
  </crystal>
  <varray name="positions" >
   <v>       0.00000000       0.00000000       0.00000000 </v>
   <v>      -0.16666666       0.00000000       0.09162022 </v>
   <v>       0.08333334       0.12500000       0.09162022 </v>
   <v>       0.08333334      -0.12500000       0.09162022 </v>
   <v>       0.25000000       0.12500000       0.00000000 </v>
   <v>       0.25000000      -0.12500000       0.00000000 </v>
   <v>      -0.25000000       0.12500000       0.00000000 </v>
   <v>      -0.25000000      -0.12500000       0.00000000 </v>
   <v>       0.00000000       0.25000000       0.00000000 </v>
   <v>       0.00000000      -0.25000000       0.00000000 </v>
   <v>      -0.16666666       0.25000000       0.09162022 </v>
   <v>      -0.16666666      -0.25000000       0.09162022 </v>
   <v>       0.33333334       0.00000000       0.09162022 </v>
   <v>       0.16580591      -0.00114725       0.17889860 </v>
   <v>      -0.08323647      -0.12529827       0.17973933 </v>
   <v>      -0.08414190       0.12527412       0.17977355 </v>
   <v>      -0.41666666       0.12500000       0.09162022 </v>
   <v>      -0.41666666      -0.12500000       0.09162022 </v>
   <v>       0.08333334       0.37500000       0.09162022 </v>
   <v>       0.08333334      -0.37500000       0.09162022 </v>
   <v>       0.33333334       0.25000000       0.09162022 </v>
   <v>       0.33333334      -0.25000000       0.09162022 </v>
   <v>      -0.50000000       0.00000000       0.00000000 </v>
   <v>       0.25000000       0.37500000       0.00000000 </v>
   <v>       0.25000000      -0.37500000       0.00000000 </v>
   <v>      -0.25000000       0.37500000       0.00000000 </v>
   <v>      -0.25000000      -0.37500000       0.00000000 </v>
   <v>       0.16691918      -0.25137889       0.17942809 </v>
   <v>      -0.33355036      -0.00032228       0.17981287 </v>
   <v>       0.16720913       0.25076603       0.18055974 </v>
   <v>      -0.50000000       0.25000000       0.00000000 </v>
   <v>      -0.50000000      -0.25000000       0.00000000 </v>
   <v>       0.00000000      -0.50000000       0.00000000 </v>
   <v>       0.41560480      -0.12545818       0.17961624 </v>
   <v>      -0.08387299       0.37455132       0.17953752 </v>
   <v>      -0.33284991      -0.24974958       0.18002084 </v>
   <v>      -0.08123399      -0.37620238       0.17964226 </v>
   <v>       0.41709151       0.12537788       0.18070334 </v>
   <v>      -0.33786443       0.24971398       0.18193179 </v>
   <v>      -0.41666666       0.37500000       0.09162022 </v>
   <v>      -0.41666666      -0.37500000       0.09162022 </v>
   <v>      -0.16666666      -0.50000000       0.09162022 </v>
   <v>      -0.00221739      -0.00080627       0.27056661 </v>
   <v>       0.33333334      -0.50000000       0.09162022 </v>
   <v>       0.24389454       0.11782535       0.26862274 </v>
   <v>      -0.00159647       0.24761795       0.27058882 </v>
   <v>      -0.00084217      -0.24905973       0.27056285 </v>
   <v>      -0.24998739       0.12339743       0.27060053 </v>
   <v>      -0.24902516      -0.12427193       0.27070954 </v>
   <v>       0.24823970      -0.12582911       0.27068595 </v>
   <v>       0.16939198       0.49572808       0.18226139 </v>
   <v>       0.41873332      -0.37592452       0.18184195 </v>
   <v>       0.41719567       0.37601279       0.18253593 </v>
   <v>      -0.50000000      -0.50000000       0.00000000 </v>
   <v>      -0.33453986      -0.49916057       0.18152722 </v>
   <v>      -0.24322126      -0.37169438       0.27039795 </v>
   <v>       0.24630625      -0.37205963       0.27008007 </v>
   <v>      -0.24427988       0.37430460       0.26987808 </v>
   <v>       0.49962985      -0.00253949       0.27047378 </v>
   <v>       0.24932676       0.37377372       0.27545284 </v>
   <v>       0.49997408      -0.24403898       0.27095133 </v>
   <v>       0.00124280       0.49942112       0.27079222 </v>
   <v>      -0.49625414       0.24662669       0.27426296 </v>
   <v>       0.38811686       0.31984582       0.33259976 </v>
   <v>      -0.49189709      -0.48845739       0.27348930 </v>
   <v>       0.47935714       0.46364111       0.34447646 </v>
  </varray>
 </structure>
 <varray name="primitive_index" >
  <v type="int" >        1 </v>
  <v type="int" >       34 </v>
  <v type="int" >        5 </v>
  <v type="int" >       29 </v>
  <v type="int" >        4 </v>
  <v type="int" >       28 </v>
  <v type="int" >       36 </v>
  <v type="int" >       60 </v>
  <v type="int" >        9 </v>
  <v type="int" >       25 </v>
  <v type="int" >       42 </v>
  <v type="int" >       58 </v>
  <v type="int" >        2 </v>
  <v type="int" >        3 </v>
  <v type="int" >       62 </v>
  <v type="int" >       38 </v>
  <v type="int" >       37 </v>
  <v type="int" >       61 </v>
  <v type="int" >       13 </v>
  <v type="int" >       21 </v>
  <v type="int" >       10 </v>
  <v type="int" >       26 </v>
  <v type="int" >       33 </v>
  <v type="int" >       12 </v>
  <v type="int" >       20 </v>
  <v type="int" >       44 </v>
  <v type="int" >       52 </v>
  <v type="int" >       27 </v>
  <v type="int" >       35 </v>
  <v type="int" >       11 </v>
  <v type="int" >       41 </v>
  <v type="int" >       57 </v>
  <v type="int" >       17 </v>
  <v type="int" >       30 </v>
  <v type="int" >       46 </v>
  <v type="int" >       59 </v>
  <v type="int" >       54 </v>
  <v type="int" >        6 </v>
  <v type="int" >       43 </v>
  <v type="int" >       45 </v>
  <v type="int" >       53 </v>
  <v type="int" >       50 </v>
  <v type="int" >        7 </v>
  <v type="int" >       18 </v>
  <v type="int" >        8 </v>
  <v type="int" >       15 </v>
  <v type="int" >       31 </v>
  <v type="int" >       40 </v>
  <v type="int" >       64 </v>
  <v type="int" >       32 </v>
  <v type="int" >       19 </v>
  <v type="int" >       22 </v>
  <v type="int" >       14 </v>
  <v type="int" >       49 </v>
  <v type="int" >       51 </v>
  <v type="int" >       56 </v>
  <v type="int" >       24 </v>
  <v type="int" >       48 </v>
  <v type="int" >       39 </v>
  <v type="int" >       16 </v>
  <v type="int" >       63 </v>
  <v type="int" >       23 </v>
  <v type="int" >       47 </v>
  <v type="int" >       66 </v>
  <v type="int" >       55 </v>
  <v type="int" >       65 </v>
 </varray>
 <kpoints>
  <generation param="Gamma">
   <v type="int" name="divisions">       1        1        1 </v>
   <v name="usershift">      0.00000000       0.00000000       0.00000000 </v>
   <v name="genvec1">      1.00000000       0.00000000       0.00000000 </v>
   <v name="genvec2">      0.00000000       1.00000000       0.00000000 </v>
   <v name="genvec3">      0.00000000       0.00000000       1.00000000 </v>
   <v name="shift">      0.00000000       0.00000000       0.00000000 </v>
  </generation>
  <varray name="kpointlist" >
   <v>       0.00000000       0.00000000       0.00000000 </v>
  </varray>
  <varray name="weights" >
   <v>       1.00000000 </v>
  </varray>
 </kpoints>
 <parameters>
  <separator name="general" >
   <i type="string" name="SYSTEM">Pt111 O2 adsorption system</i>
   <i type="logical" name="LCOMPAT"> F  </i>
  </separator>
  <separator name="electronic" >
   <i type="string" name="PREC">normal</i>
   <i name="ENMAX">    450.00000000</i>
   <i name="ENAUG">    605.39200000</i>
   <i name="EDIFF">      0.00000100</i>
   <i type="int" name="IALGO">    68</i>
   <i type="int" name="IWAVPR">    11</i>
   <i type="int" name="NBANDS">   392</i>
   <i name="NELECT">    652.00000000</i>
   <i type="int" name="TURBO">     0</i>
   <i type="int" name="IRESTART">     0</i>
   <i type="int" name="NREBOOT">     0</i>
   <i type="int" name="NMIN">     0</i>
   <i name="EREF">      0.00000000</i>
   <separator name="electronic smearing" >
    <i type="int" name="ISMEAR">     0</i>
    <i name="SIGMA">      0.10000000</i>
    <i name="KSPACING">      0.50000000</i>
    <i type="logical" name="KGAMMA"> T  </i>
   </separator>
   <separator name="electronic projectors" >
    <i type="logical" name="LREAL"> T  </i>
    <v name="ROPT">     -0.00050000     -0.00050000</v>
    <i type="int" name="LMAXPAW">  -100</i>
    <i type="int" name="LMAXMIX">     2</i>
    <i type="logical" name="NLSPLINE"> F  </i>
   </separator>
   <separator name="electronic startup" >
    <i type="int" name="ISTART">     0</i>
    <i type="int" name="ICHARG">     1</i>
    <i type="int" name="INIWAV">     1</i>
   </separator>
   <separator name="electronic spin" >
    <i type="int" name="ISPIN">     1</i>
    <i type="logical" name="LNONCOLLINEAR"> F  </i>
    <v name="MAGMOM">      1.00000000      1.00000000      1.00000000      1.00000000      1.00000000      1.00000000      1.00000000      1.00000000      1.00000000      1.00000000      1.00000000      1.00000000      1.00000000      1.00000000      1.00000000      1.00000000      1.00000000      1.00000000      1.00000000      1.00000000
      1.00000000      1.00000000      1.00000000      1.00000000      1.00000000      1.00000000      1.00000000      1.00000000      1.00000000      1.00000000      1.00000000      1.00000000      1.00000000      1.00000000      1.00000000      1.00000000      1.00000000      1.00000000      1.00000000      1.00000000
      1.00000000      1.00000000      1.00000000      1.00000000      1.00000000      1.00000000      1.00000000      1.00000000      1.00000000      1.00000000      1.00000000      1.00000000      1.00000000      1.00000000      1.00000000      1.00000000      1.00000000      1.00000000      1.00000000      1.00000000
      1.00000000      1.00000000      1.00000000      1.00000000      1.00000000      1.00000000</v>
    <i name="NUPDOWN">     -1.00000000</i>
    <i type="logical" name="LSORBIT"> F  </i>
    <v name="SAXIS">      0.00000000      0.00000000      1.00000000</v>
    <i type="logical" name="LSPIRAL"> F  </i>
    <v name="QSPIRAL">      0.00000000      0.00000000      0.00000000</v>
    <i type="logical" name="LZEROZ"> F  </i>
   </separator>
   <separator name="electronic exchange-correlation" >
    <i type="logical" name="LASPH"> F  </i>
    <i type="logical" name="LMETAGGA"> F  </i>
   </separator>
   <separator name="electronic convergence" >
    <i type="int" name="NELM">    60</i>
    <i type="int" name="NELMDL">    -5</i>
    <i type="int" name="NELMIN">     2</i>
    <i name="ENINI">    450.00000000</i>
    <separator name="electronic convergence detail" >
     <i type="logical" name="LDIAG"> T  </i>
     <i type="logical" name="LSUBROT"> F  </i>
     <i name="WEIMIN">      0.00100000</i>
     <i name="EBREAK">      0.00000000</i>
     <i name="DEPER">      0.30000000</i>
     <i type="int" name="NRMM">     4</i>
     <i name="TIME">      0.40000000</i>
    </separator>
   </separator>
   <separator name="electronic mixer" >
    <i name="AMIX">      0.40000000</i>
    <i name="BMIX">      1.00000000</i>
    <i name="AMIN">      0.10000000</i>
    <i name="AMIX_MAG">      1.60000000</i>
    <i name="BMIX_MAG">      1.00000000</i>
    <separator name="electronic mixer details" >
     <i type="int" name="IMIX">     4</i>
     <i type="logical" name="MIXFIRST"> F  </i>
     <i type="int" name="MAXMIX">   -45</i>
     <i name="WC">    100.00000000</i>
     <i type="int" name="INIMIX">     1</i>
     <i type="int" name="MIXPRE">     1</i>
     <i type="int" name="MREMOVE">     5</i>
    </separator>
   </separator>
   <separator name="electronic dipolcorrection" >
    <i type="logical" name="LDIPOL"> T  </i>
    <i type="logical" name="LMONO"> F  </i>
    <i type="int" name="IDIPOL">     3</i>
    <i name="EPSILON">      1.00000000</i>
    <v name="DIPOL">   -100.00000000   -100.00000000   -100.00000000</v>
    <i name="EFIELD">      0.00000000</i>
   </separator>
  </separator>
  <separator name="grids" >
   <i type="int" name="NGX">    50</i>
   <i type="int" name="NGY">    60</i>
   <i type="int" name="NGZ">   140</i>
   <i type="int" name="NGXF">   100</i>
   <i type="int" name="NGYF">   120</i>
   <i type="int" name="NGZF">   280</i>
   <i type="logical" name="ADDGRID"> F  </i>
  </separator>
  <separator name="ionic" >
   <i type="int" name="NSW">   829</i>
   <i type="int" name="IBRION">     5</i>
   <i type="int" name="MDALGO">     0</i>
   <i type="int" name="ISIF">     2</i>
   <i name="PSTRESS">      0.00000000</i>
   <i name="EDIFFG">     -0.02000000</i>
   <i type="int" name="NFREE">     2</i>
   <i name="POTIM">      0.01500000</i>
   <i name="SMASS">     -3.00000000</i>
   <i name="SCALEE">      1.00000000</i>
  </separator>
  <separator name="ionic md" >
   <i name="TEBEG">      0.00010000</i>
   <i name="TEEND">      0.00010000</i>
   <i type="int" name="NBLOCK">     1</i>
   <i type="int" name="KBLOCK">   829</i>
   <i type="int" name="NPACO">   256</i>
   <i name="APACO">     16.00000000</i>
  </separator>
  <separator name="symmetry" >
   <i type="int" name="ISYM">     0</i>
   <i name="SYMPREC">      0.00001000</i>
  </separator>
  <separator name="dos" >
   <i type="int" name="LORBIT">     0</i>
   <v name="RWIGS">     -1.00000000     -1.00000000</v>
   <i type="int" name="NEDOS">   301</i>
   <i name="EMIN">     10.00000000</i>
   <i name="EMAX">    -10.00000000</i>
   <i name="EFERMI">      0.00000000</i>
  </separator>
  <separator name="writing" >
   <i type="int" name="NWRITE">     3</i>
   <i type="logical" name="LWAVE"> F  </i>
   <i type="logical" name="LDOWNSAMPLE"> F  </i>
   <i type="logical" name="LCHARG"> F  </i>
   <i type="logical" name="LPARD"> F  </i>
   <i type="logical" name="LVTOT"> F  </i>
   <i type="logical" name="LVHAR"> F  </i>
   <i type="logical" name="LELF"> F  </i>
   <i type="logical" name="LOPTICS"> F  </i>
   <v name="STM">      0.00000000      0.00000000      0.00000000      0.00000000      0.00000000      0.00000000      0.00000000</v>
  </separator>
  <separator name="performance" >
   <i type="int" name="NPAR">     8</i>
   <i type="int" name="NSIM">     4</i>
   <i type="int" name="NBLK">    -1</i>
   <i type="logical" name="LPLANE"> T  </i>
   <i type="logical" name="LSCALAPACK"> T  </i>
   <i type="logical" name="LSCAAWARE"> F  </i>
   <i type="logical" name="LSCALU"> F  </i>
   <i type="logical" name="LASYNC"> F  </i>
   <i type="logical" name="LORBITALREAL"> F  </i>
  </separator>
  <separator name="miscellaneous" >
   <i type="int" name="IDIOT">     3</i>
   <i type="int" name="ISPECIAL">     0</i>
   <i type="logical" name="LMUSIC"> F  </i>
   <v name="POMASS">    195.08000000     16.00000000</v>
   <v name="DARWINR">      0.00000000      0.00000000</v>
   <v name="DARWINV">      1.00000000      1.00000000</v>
   <i type="logical" name="LCORR"> T  </i>
  </separator>
  <i type="logical" name="GGA_COMPAT"> T  </i>
  <i type="logical" name="LBERRY"> F  </i>
  <i type="int" name="ICORELEVEL">     0</i>
  <i type="logical" name="LDAU"> F  </i>
  <i type="int" name="I_CONSTRAINED_M">     0</i>
  <separator name="electronic exchange-correlation" >
   <i type="string" name="GGA">PE</i>
   <i type="int" name="VOSKOWN">     0</i>
   <i type="logical" name="LHFCALC"> F  </i>
   <i type="string" name="PRECFOCK"></i>
   <i type="logical" name="LSYMGRAD"> F  </i>
   <i type="logical" name="LHFONE"> F  </i>
   <i type="logical" name="LRHFCALC"> F  </i>
   <i type="logical" name="LTHOMAS"> F  </i>
   <i type="logical" name="LMODELHF"> F  </i>
   <i name="ENCUT4O">     -1.00000000</i>
   <i type="int" name="EXXOEP">     0</i>
   <i type="int" name="FOURORBIT">     0</i>
   <i name="AEXX">      0.00000000</i>
   <i name="HFALPHA">      0.00000000</i>
   <i name="MCALPHA">      0.00000000</i>
   <i name="ALDAX">      1.00000000</i>
   <i name="AGGAX">      1.00000000</i>
   <i name="ALDAC">      1.00000000</i>
   <i name="AGGAC">      1.00000000</i>
   <i type="int" name="NKREDX">     1</i>
   <i type="int" name="NKREDY">     1</i>
   <i type="int" name="NKREDZ">     1</i>
   <i type="logical" name="SHIFTRED"> F  </i>
   <i type="logical" name="ODDONLY"> F  </i>
   <i type="logical" name="EVENONLY"> F  </i>
   <i type="int" name="LMAXFOCK">     0</i>
   <i type="int" name="NMAXFOCKAE">     0</i>
   <i type="logical" name="LFOCKAEDFT"> F  </i>
   <i name="HFSCREEN">      0.00000000</i>
   <i name="HFSCREENC">      0.00000000</i>
   <i type="int" name="NBANDSGWLOW">     0</i>
  </separator>
  <separator name="vdW DFT" >
   <i type="logical" name="LUSE_VDW"> F  </i>
   <i name="Zab_VDW">     -0.84910000</i>
   <i name="PARAM1">      0.12340000</i>
   <i name="PARAM2">      1.00000000</i>
   <i name="PARAM3">      0.00000000</i>
  </separator>
  <separator name="model GW" >
   <i type="int" name="MODEL_GW">     0</i>
   <i name="MODEL_EPS0">     24.78288674</i>
   <i name="MODEL_ALPHA">      1.00000000</i>
  </separator>
  <separator name="linear response parameters" >
   <i type="logical" name="LEPSILON"> F  </i>
   <i type="logical" name="LRPA"> F  </i>
   <i type="logical" name="LNABLA"> F  </i>
   <i type="logical" name="LVEL"> F  </i>
   <i type="int" name="KINTER">     0</i>
   <i name="CSHIFT">      0.10000000</i>
   <i name="OMEGAMAX">     -1.00000000</i>
   <i name="DEG_THRESHOLD">      0.00200000</i>
   <i name="RTIME">     -0.10000000</i>
   <i name="WPLASMAI">      0.00000000</i>
   <v name="DFIELD">      0.00000000      0.00000000      0.00000000</v>
   <v name="WPLASMA">      0.00000000      0.00000000      0.00000000      0.00000000      0.00000000      0.00000000      0.00000000      0.00000000      0.00000000</v>
  </separator>
  <separator name="orbital magnetization" >
   <i type="logical" name="NUCIND"> F  </i>
   <v name="MAGPOS">      0.00000000      0.00000000      0.00000000</v>
   <i type="logical" name="LNICSALL"> T  </i>
   <i type="logical" name="ORBITALMAG"> F  </i>
   <i type="logical" name="LMAGBLOCH"> F  </i>
   <i type="logical" name="LCHIMAG"> F  </i>
   <i type="logical" name="LGAUGE"> T  </i>
   <i type="int" name="MAGATOM">     0</i>
   <v name="MAGDIPOL">      0.00000000      0.00000000      0.00000000</v>
   <v name="AVECCONST">      0.00000000      0.00000000      0.00000000</v>
  </separator>
  <separator name="response functions" >
   <i type="logical" name="LADDER"> F  </i>
   <i type="logical" name="LRPAFORCE"> F  </i>
   <i type="logical" name="LFXC"> F  </i>
   <i type="logical" name="LHARTREE"> T  </i>
   <i type="int" name="IBSE">     0</i>
   <v type="int" name="KPOINT">    -1     0     0     0</v>
   <i type="logical" name="LTCTE"> F  </i>
   <i type="logical" name="LTETE"> F  </i>
   <i type="logical" name="LTRIPLET"> F  </i>
   <i type="logical" name="LFXCEPS"> F  </i>
   <i type="logical" name="LFXHEG"> F  </i>
   <i type="int" name="NATURALO">     2</i>
   <i type="logical" name="L2ORDER"> F  </i>
   <i type="logical" name="LMP2LT"> F  </i>
   <i type="logical" name="LUSEW"> F  </i>
   <i name="ENCUTGW">     -2.00000000</i>
   <i name="ENCUTGWSOFT">     -2.00000000</i>
   <i name="ENCUTLF">     -1.00000000</i>
   <i type="int" name="LMAXMP2">    -1</i>
   <i name="SCISSOR">      0.00000000</i>
   <i type="int" name="NOMEGA">     0</i>
   <i type="int" name="NOMEGAR">     0</i>
   <i type="int" name="NBANDSGW">    -1</i>
   <i type="int" name="NBANDSO">    -1</i>
   <i type="int" name="NBANDSV">    -1</i>
   <i type="int" name="NELM">     1</i>
   <i type="int" name="NELMHF">     1</i>
   <i type="int" name="DIM">     3</i>
   <i type="int" name="ANTIRES">     0</i>
   <i name="OMEGAMAX">    -30.00000000</i>
   <i name="OMEGAMIN">    -30.00000000</i>
   <i name="OMEGATL">   -200.00000000</i>
   <i type="int" name="OMEGAGRID">   140</i>
   <i name="CSHIFT">     -0.10000000</i>
   <i type="logical" name="SELFENERGY"> F  </i>
   <i type="logical" name="LSPECTRAL"> F  </i>
   <i type="logical" name="LSPECTRALGW"> F  </i>
   <i type="logical" name="LSINGLES"> F  </i>
   <i type="logical" name="LFERMIGW"> F  </i>
   <i type="logical" name="ODDONLYGW"> F  </i>
   <i type="logical" name="EVENONLYGW"> F  </i>
   <i type="int" name="NKREDLFX">     1</i>
   <i type="int" name="NKREDLFY">     1</i>
   <i type="int" name="NKREDLFZ">     1</i>
   <i type="int" name="MAXMEM">  2800</i>
   <i type="int" name="TELESCOPE">     0</i>
   <i type="int" name="TAUPAR">     1</i>
   <i type="int" name="OMEGAPAR">    -1</i>
   <i name="LAMBDA">      1.00000000</i>
  </separator>
  <separator name="External order field" >
   <i name="OFIELD_KAPPA">      0.00000000</i>
   <v name="OFIELD_K">      0.00000000      0.00000000      0.00000000</v>
   <i name="OFIELD_Q6_NEAR">      0.00000000</i>
   <i name="OFIELD_Q6_FAR">      0.00000000</i>
   <i name="OFIELD_A">      0.00000000</i>
  </separator>
  <separator name="solvation model" >
   <i type="logical" name="LSOL"> F  </i>
  </separator>
 </parameters>
 <atominfo>
  <atoms>      66 </atoms>
  <types>       2 </types>
  <array name="atoms" >
   <dimension dim="1">ion</dimension>
   <field type="string">element</field>
   <field type="int">atomtype</field>
   <set>
    <rc><c>Pt</c><c>   1</c></rc>
    <rc><c>Pt</c><c>   1</c></rc>
    <rc><c>Pt</c><c>   1</c></rc>
    <rc><c>Pt</c><c>   1</c></rc>
    <rc><c>Pt</c><c>   1</c></rc>
    <rc><c>Pt</c><c>   1</c></rc>
    <rc><c>Pt</c><c>   1</c></rc>
    <rc><c>Pt</c><c>   1</c></rc>
    <rc><c>Pt</c><c>   1</c></rc>
    <rc><c>Pt</c><c>   1</c></rc>
    <rc><c>Pt</c><c>   1</c></rc>
    <rc><c>Pt</c><c>   1</c></rc>
    <rc><c>Pt</c><c>   1</c></rc>
    <rc><c>Pt</c><c>   1</c></rc>
    <rc><c>Pt</c><c>   1</c></rc>
    <rc><c>Pt</c><c>   1</c></rc>
    <rc><c>Pt</c><c>   1</c></rc>
    <rc><c>Pt</c><c>   1</c></rc>
    <rc><c>Pt</c><c>   1</c></rc>
    <rc><c>Pt</c><c>   1</c></rc>
    <rc><c>Pt</c><c>   1</c></rc>
    <rc><c>Pt</c><c>   1</c></rc>
    <rc><c>Pt</c><c>   1</c></rc>
    <rc><c>Pt</c><c>   1</c></rc>
    <rc><c>Pt</c><c>   1</c></rc>
    <rc><c>Pt</c><c>   1</c></rc>
    <rc><c>Pt</c><c>   1</c></rc>
    <rc><c>Pt</c><c>   1</c></rc>
    <rc><c>Pt</c><c>   1</c></rc>
    <rc><c>Pt</c><c>   1</c></rc>
    <rc><c>Pt</c><c>   1</c></rc>
    <rc><c>Pt</c><c>   1</c></rc>
    <rc><c>Pt</c><c>   1</c></rc>
    <rc><c>Pt</c><c>   1</c></rc>
    <rc><c>Pt</c><c>   1</c></rc>
    <rc><c>Pt</c><c>   1</c></rc>
    <rc><c>Pt</c><c>   1</c></rc>
    <rc><c>Pt</c><c>   1</c></rc>
    <rc><c>Pt</c><c>   1</c></rc>
    <rc><c>Pt</c><c>   1</c></rc>
    <rc><c>Pt</c><c>   1</c></rc>
    <rc><c>Pt</c><c>   1</c></rc>
    <rc><c>Pt</c><c>   1</c></rc>
    <rc><c>Pt</c><c>   1</c></rc>
    <rc><c>Pt</c><c>   1</c></rc>
    <rc><c>Pt</c><c>   1</c></rc>
    <rc><c>Pt</c><c>   1</c></rc>
    <rc><c>Pt</c><c>   1</c></rc>
    <rc><c>Pt</c><c>   1</c></rc>
    <rc><c>Pt</c><c>   1</c></rc>
    <rc><c>Pt</c><c>   1</c></rc>
    <rc><c>Pt</c><c>   1</c></rc>
    <rc><c>Pt</c><c>   1</c></rc>
    <rc><c>Pt</c><c>   1</c></rc>
    <rc><c>Pt</c><c>   1</c></rc>
    <rc><c>Pt</c><c>   1</c></rc>
    <rc><c>Pt</c><c>   1</c></rc>
    <rc><c>Pt</c><c>   1</c></rc>
    <rc><c>Pt</c><c>   1</c></rc>
    <rc><c>Pt</c><c>   1</c></rc>
    <rc><c>Pt</c><c>   1</c></rc>
    <rc><c>Pt</c><c>   1</c></rc>
    <rc><c>Pt</c><c>   1</c></rc>
    <rc><c>Pt</c><c>   1</c></rc>
    <rc><c>O </c><c>   2</c></rc>
    <rc><c>O </c><c>   2</c></rc>
   </set>
  </array>
  <array name="atomtypes" >
   <dimension dim="1">type</dimension>
   <field type="int">atomspertype</field>
   <field type="string">element</field>
   <field>mass</field>
   <field>valence</field>
   <field type="string">pseudopotential</field>
   <set>
    <rc><c>  64</c><c>Pt</c><c>    195.08000000</c><c>     10.00000000</c><c>  PAW_PBE Pt 04Feb2005                  </c></rc>
    <rc><c>   2</c><c>O </c><c>     16.00000000</c><c>      6.00000000</c><c>  PAW_PBE O 08Apr2002                   </c></rc>
   </set>
  </array>
 </atominfo>
 <structure name="initialpos" >
  <crystal>
   <varray name="basis" >
    <v>       9.71779202       0.00000000       0.00000000 </v>
    <v>       0.00000000      11.22113968       0.00000000 </v>
    <v>       0.00000000       0.00000000      25.00000000 </v>
   </varray>
   <i name="volume">   2726.11754094 </i>
   <varray name="rec_basis" >
    <v>       0.10290403       0.00000000       0.00000000 </v>
    <v>       0.00000000       0.08911751       0.00000000 </v>
    <v>       0.00000000       0.00000000       0.04000000 </v>
   </varray>
  </crystal>
  <varray name="positions" >
   <v>       0.00000000       0.00000000       0.00000000 </v>
   <v>       0.33333333       0.00000000       0.09162022 </v>
   <v>       0.16580591       0.99885275       0.17889860 </v>
   <v>       0.25000000       0.12500000       0.00000000 </v>
   <v>       0.08333333       0.12500000       0.09162022 </v>
   <v>       0.41709151       0.12537788       0.18070334 </v>
   <v>       0.99778261       0.99919373       0.27056661 </v>
   <v>       0.24389454       0.11782535       0.26862274 </v>
   <v>       0.00000000       0.25000000       0.00000000 </v>
   <v>       0.33333333       0.25000000       0.09162022 </v>
   <v>       0.16720913       0.25076603       0.18055974 </v>
   <v>       0.25000000       0.37500000       0.00000000 </v>
   <v>       0.08333333       0.37500000       0.09162022 </v>
   <v>       0.41719567       0.37601279       0.18253593 </v>
   <v>       0.99840353       0.24761795       0.27058882 </v>
   <v>       0.24932676       0.37377372       0.27545284 </v>
   <v>       0.00000000       0.50000000       0.00000000 </v>
   <v>       0.33333333       0.50000000       0.09162022 </v>
   <v>       0.16939198       0.49572808       0.18226139 </v>
   <v>       0.25000000       0.62500000       0.00000000 </v>
   <v>       0.08333333       0.62500000       0.09162022 </v>
   <v>       0.41873332       0.62407548       0.18184195 </v>
   <v>       0.00124280       0.49942112       0.27079222 </v>
   <v>       0.24630625       0.62794037       0.27008007 </v>
   <v>       0.00000000       0.75000000       0.00000000 </v>
   <v>       0.33333333       0.75000000       0.09162022 </v>
   <v>       0.16691918       0.74862111       0.17942809 </v>
   <v>       0.25000000       0.87500000       0.00000000 </v>
   <v>       0.08333333       0.87500000       0.09162022 </v>
   <v>       0.41560480       0.87454182       0.17961624 </v>
   <v>       0.99915783       0.75094027       0.27056285 </v>
   <v>       0.24823970       0.87417089       0.27068595 </v>
   <v>       0.50000000       0.00000000       0.00000000 </v>
   <v>       0.83333333       0.00000000       0.09162022 </v>
   <v>       0.66644964       0.99967772       0.17981287 </v>
   <v>       0.75000000       0.12500000       0.00000000 </v>
   <v>       0.58333333       0.12500000       0.09162022 </v>
   <v>       0.91585810       0.12527412       0.17977355 </v>
   <v>       0.49962985       0.99746051       0.27047378 </v>
   <v>       0.75001261       0.12339743       0.27060053 </v>
   <v>       0.50000000       0.25000000       0.00000000 </v>
   <v>       0.83333333       0.25000000       0.09162022 </v>
   <v>       0.66213557       0.24971398       0.18193179 </v>
   <v>       0.75000000       0.37500000       0.00000000 </v>
   <v>       0.58333333       0.37500000       0.09162022 </v>
   <v>       0.91612701       0.37455132       0.17953752 </v>
   <v>       0.50374586       0.24662669       0.27426296 </v>
   <v>       0.75572012       0.37430460       0.26987808 </v>
   <v>       0.50000000       0.50000000       0.00000000 </v>
   <v>       0.83333333       0.50000000       0.09162022 </v>
   <v>       0.66546014       0.50083943       0.18152722 </v>
   <v>       0.75000000       0.62500000       0.00000000 </v>
   <v>       0.58333333       0.62500000       0.09162022 </v>
   <v>       0.91876601       0.62379762       0.17964226 </v>
   <v>       0.50810291       0.51154261       0.27348930 </v>
   <v>       0.75677874       0.62830562       0.27039795 </v>
   <v>       0.50000000       0.75000000       0.00000000 </v>
   <v>       0.83333333       0.75000000       0.09162022 </v>
   <v>       0.66715009       0.75025042       0.18002084 </v>
   <v>       0.75000000       0.87500000       0.00000000 </v>
   <v>       0.58333333       0.87500000       0.09162022 </v>
   <v>       0.91676353       0.87470173       0.17973933 </v>
   <v>       0.49997408       0.75596102       0.27095133 </v>
   <v>       0.75097484       0.87572807       0.27070954 </v>
   <v>       0.47935714       0.46364111       0.34447646 </v>
   <v>       0.38811686       0.31984582       0.33259976 </v>
  </varray>
  <varray name="selective"  type="logical" >
   <v type="logical" >  F  F  F </v>
   <v type="logical" >  F  F  F </v>
   <v type="logical" >  F  F  F </v>
   <v type="logical" >  F  F  F </v>
   <v type="logical" >  F  F  F </v>
   <v type="logical" >  F  F  F </v>
   <v type="logical" >  F  F  F </v>
   <v type="logical" >  F  F  F </v>
   <v type="logical" >  F  F  F </v>
   <v type="logical" >  F  F  F </v>
   <v type="logical" >  F  F  F </v>
   <v type="logical" >  F  F  F </v>
   <v type="logical" >  F  F  F </v>
   <v type="logical" >  F  F  F </v>
   <v type="logical" >  F  F  F </v>
   <v type="logical" >  F  F  F </v>
   <v type="logical" >  F  F  F </v>
   <v type="logical" >  F  F  F </v>
   <v type="logical" >  F  F  F </v>
   <v type="logical" >  F  F  F </v>
   <v type="logical" >  F  F  F </v>
   <v type="logical" >  F  F  F </v>
   <v type="logical" >  F  F  F </v>
   <v type="logical" >  F  F  F </v>
   <v type="logical" >  F  F  F </v>
   <v type="logical" >  F  F  F </v>
   <v type="logical" >  F  F  F </v>
   <v type="logical" >  F  F  F </v>
   <v type="logical" >  F  F  F </v>
   <v type="logical" >  F  F  F </v>
   <v type="logical" >  F  F  F </v>
   <v type="logical" >  F  F  F </v>
   <v type="logical" >  F  F  F </v>
   <v type="logical" >  F  F  F </v>
   <v type="logical" >  F  F  F </v>
   <v type="logical" >  F  F  F </v>
   <v type="logical" >  F  F  F </v>
   <v type="logical" >  F  F  F </v>
   <v type="logical" >  F  F  F </v>
   <v type="logical" >  F  F  F </v>
   <v type="logical" >  F  F  F </v>
   <v type="logical" >  F  F  F </v>
   <v type="logical" >  F  F  F </v>
   <v type="logical" >  F  F  F </v>
   <v type="logical" >  F  F  F </v>
   <v type="logical" >  F  F  F </v>
   <v type="logical" >  F  F  F </v>
   <v type="logical" >  F  F  F </v>
   <v type="logical" >  F  F  F </v>
   <v type="logical" >  F  F  F </v>
   <v type="logical" >  F  F  F </v>
   <v type="logical" >  F  F  F </v>
   <v type="logical" >  F  F  F </v>
   <v type="logical" >  F  F  F </v>
   <v type="logical" >  F  F  F </v>
   <v type="logical" >  F  F  F </v>
   <v type="logical" >  F  F  F </v>
   <v type="logical" >  F  F  F </v>
   <v type="logical" >  F  F  F </v>
   <v type="logical" >  F  F  F </v>
   <v type="logical" >  F  F  F </v>
   <v type="logical" >  F  F  F </v>
   <v type="logical" >  F  F  F </v>
   <v type="logical" >  F  F  F </v>
   <v type="logical" >  T  T  T </v>
   <v type="logical" >  T  T  T </v>
  </varray>
  <nose>
   <v>      -3.00000000       0.00000000       0.00010000       0.00010000 </v>
  </nose>
 </structure>
 <calculation>
  <scstep>
   <time name="dav">    2.20    2.35</time>
   <time name="total">    2.27    2.50</time>
   <dipole>
    <v name="dipole">      0.00000000       0.00000000      -0.00031198 </v>
    <i name="Tr[quadrupol]"> -12528.69477235 </i>
    <i name="Echarged">      0.00000000 </i>
    <i name="Edipol_quadrupol">      0.00000000 </i>
    <i name="Eion">      0.00000000 </i>
   </dipole>
   <energy>
    <i name="alphaZ">   1466.12310069 </i>
    <i name="ewald"> 248505.57910100 </i>
    <i name="hartreedc">-298460.74779573 </i>
    <i name="XCdc">    273.13756878 </i>
    <i name="pawpsdc">  45245.00522118 </i>
    <i name="pawaedc"> -43438.47517393 </i>
    <i name="eentropy">     -0.17111600 </i>
    <i name="bandstr">   3187.51202464 </i>
    <i name="atom">  47527.87699037 </i>
    <i name="e_fr_energy">   4305.83992101 </i>
    <i name="e_wo_entrp">   4306.01103701 </i>
    <i name="e_0_energy">   4305.92547901 </i>
   </energy>
  </scstep>
  <scstep>
   <time name="dav">    2.59    2.62</time>
   <time name="total">    2.59    2.62</time>
   <dipole>
    <v name="dipole">      0.00000000       0.00000000      -0.00031198 </v>
    <i name="Tr[quadrupol]"> -12528.69477235 </i>
    <i name="Echarged">      0.00000000 </i>
    <i name="Edipol_quadrupol">      0.00000000 </i>
    <i name="Eion">      0.00000000 </i>
   </dipole>
   <energy>
    <i name="e_fr_energy">    -55.61093141 </i>
    <i name="e_wo_entrp">    -55.32924137 </i>
    <i name="e_0_energy">    -55.47008639 </i>
   </energy>
  </scstep>
  <scstep>
   <time name="dav">    2.43    2.43</time>
   <time name="total">    2.43    2.43</time>
   <dipole>
    <v name="dipole">      0.00000000       0.00000000      -0.00031198 </v>
    <i name="Tr[quadrupol]"> -12528.69477235 </i>
    <i name="Echarged">      0.00000000 </i>
    <i name="Edipol_quadrupol">      0.00000000 </i>
    <i name="Eion">      0.00000000 </i>
   </dipole>
   <energy>
    <i name="e_fr_energy">   -387.39040941 </i>
    <i name="e_wo_entrp">   -386.60868213 </i>
    <i name="e_0_energy">   -386.99954577 </i>
   </energy>
  </scstep>
  <scstep>
   <time name="dav">    2.90    2.99</time>
   <time name="total">    2.90    2.99</time>
   <dipole>
    <v name="dipole">      0.00000000       0.00000000      -0.00031198 </v>
    <i name="Tr[quadrupol]"> -12528.69477235 </i>
    <i name="Echarged">      0.00000000 </i>
    <i name="Edipol_quadrupol">      0.00000000 </i>
    <i name="Eion">      0.00000000 </i>
   </dipole>
   <energy>
    <i name="e_fr_energy">   -405.56069788 </i>
    <i name="e_wo_entrp">   -404.64364891 </i>
    <i name="e_0_energy">   -405.10217340 </i>
   </energy>
  </scstep>
  <scstep>
   <time name="dav">    2.48    2.53</time>
   <time name="total">    2.56    2.64</time>
   <dipole>
    <v name="dipole">      0.00000000       0.00000000      -0.00031198 </v>
    <i name="Tr[quadrupol]"> -12528.69477235 </i>
    <i name="Echarged">      0.00000000 </i>
    <i name="Edipol_quadrupol">      0.00000000 </i>
    <i name="Eion">      0.00000000 </i>
   </dipole>
   <energy>
    <i name="e_fr_energy">   -406.05756108 </i>
    <i name="e_wo_entrp">   -405.13737784 </i>
    <i name="e_0_energy">   -405.59746946 </i>
   </energy>
  </scstep>
  <scstep>
   <time name="diag">    0.37    0.39</time>
   <time name="diis">    0.74    0.74</time>
   <time name="orth">    0.12    0.12</time>
   <time name="total">    1.35    1.38</time>
   <dipole>
    <v name="dipole">      0.00000000       0.00000000       0.39912257 </v>
    <i name="Tr[quadrupol]"> -12515.64547722 </i>
    <i name="Echarged">      0.00000000 </i>
    <i name="Edipol_quadrupol">      0.00000000 </i>
    <i name="Eion">      0.00000000 </i>
   </dipole>
   <energy>
    <i name="e_fr_energy">   -409.94359334 </i>
    <i name="e_wo_entrp">   -409.37942241 </i>
    <i name="e_0_energy">   -409.66150788 </i>
   </energy>
  </scstep>
  <scstep>
   <time name="diag">    0.37    0.38</time>
   <time name="diis">    0.76    0.76</time>
   <time name="orth">    0.12    0.12</time>
   <time name="total">    1.37    1.38</time>
   <dipole>
    <v name="dipole">      0.00000000       0.00000000      -1.23147831 </v>
    <i name="Tr[quadrupol]"> -12536.01097814 </i>
    <i name="Echarged">      0.00000000 </i>
    <i name="Edipol_quadrupol">      0.00000000 </i>
    <i name="Eion">      0.00000000 </i>
   </dipole>
   <energy>
    <i name="e_fr_energy">   -445.26542071 </i>
    <i name="e_wo_entrp">   -444.76286295 </i>
    <i name="e_0_energy">   -445.01414183 </i>
   </energy>
  </scstep>
  <scstep>
   <time name="diag">    0.39    0.39</time>
   <time name="diis">    0.73    0.73</time>
   <time name="orth">    0.12    0.12</time>
   <time name="total">    1.37    1.37</time>
   <dipole>
    <v name="dipole">      0.00000000       0.00000000       2.38895194 </v>
    <i name="Tr[quadrupol]"> -12527.58027048 </i>
    <i name="Echarged">      0.00000000 </i>
    <i name="Edipol_quadrupol">      0.00000000 </i>
    <i name="Eion">      0.00000000 </i>
   </dipole>
   <energy>
    <i name="e_fr_energy">   -505.73314795 </i>
    <i name="e_wo_entrp">   -505.26777867 </i>
    <i name="e_0_energy">   -505.50046331 </i>
   </energy>
  </scstep>
  <scstep>
   <time name="diag">    0.38    0.38</time>
   <time name="diis">    0.77    0.77</time>
   <time name="orth">    0.12    0.12</time>
   <time name="total">    1.39    1.40</time>
   <dipole>
    <v name="dipole">      0.00000000       0.00000000      -3.44375210 </v>
    <i name="Tr[quadrupol]"> -12524.05884579 </i>
    <i name="Echarged">      0.00000000 </i>
    <i name="Edipol_quadrupol">      0.00000000 </i>
    <i name="Eion">      0.00000000 </i>
   </dipole>
   <energy>
    <i name="e_fr_energy">   -524.71127628 </i>
    <i name="e_wo_entrp">   -524.65137081 </i>
    <i name="e_0_energy">   -524.68132355 </i>
   </energy>
  </scstep>
  <scstep>
   <time name="diag">    0.37    0.37</time>
   <time name="diis">    0.74    0.75</time>
   <time name="orth">    0.12    0.12</time>
   <time name="total">    1.36    1.37</time>
   <dipole>
    <v name="dipole">      0.00000000       0.00000000      -0.23828726 </v>
    <i name="Tr[quadrupol]"> -12531.24110712 </i>
    <i name="Echarged">      0.00000000 </i>
    <i name="Edipol_quadrupol">      0.00000000 </i>
    <i name="Eion">      0.00000000 </i>
   </dipole>
   <energy>
    <i name="e_fr_energy">   -398.48609552 </i>
    <i name="e_wo_entrp">   -397.88316833 </i>
    <i name="e_0_energy">   -398.18463192 </i>
   </energy>
  </scstep>
  <scstep>
   <time name="diag">    0.38    0.38</time>
   <time name="diis">    0.74    0.74</time>
   <time name="orth">    0.13    0.13</time>
   <time name="total">    1.37    1.37</time>
   <dipole>
    <v name="dipole">      0.00000000       0.00000000      -0.09329216 </v>
    <i name="Tr[quadrupol]"> -12526.78006481 </i>
    <i name="Echarged">      0.00000000 </i>
    <i name="Edipol_quadrupol">      0.00000000 </i>
    <i name="Eion">      0.00000000 </i>
   </dipole>
   <energy>
    <i name="e_fr_energy">   -389.68138802 </i>
    <i name="e_wo_entrp">   -389.25502962 </i>
    <i name="e_0_energy">   -389.46820882 </i>
   </energy>
  </scstep>
  <scstep>
   <time name="diag">    0.37    0.37</time>
   <time name="diis">    0.78    0.82</time>
   <time name="orth">    0.18    0.19</time>
   <time name="total">    1.48    1.52</time>
   <dipole>
    <v name="dipole">      0.00000000       0.00000000       0.09627440 </v>
    <i name="Tr[quadrupol]"> -12525.39689076 </i>
    <i name="Echarged">      0.00000000 </i>
    <i name="Edipol_quadrupol">      0.00000000 </i>
    <i name="Eion">      0.00000000 </i>
   </dipole>
   <energy>
    <i name="e_fr_energy">   -380.20388492 </i>
    <i name="e_wo_entrp">   -379.43292822 </i>
    <i name="e_0_energy">   -379.81840657 </i>
   </energy>
  </scstep>
  <scstep>
   <time name="diag">    0.38    0.38</time>
   <time name="diis">    0.75    0.75</time>
   <time name="orth">    0.12    0.12</time>
   <time name="total">    1.37    1.37</time>
   <dipole>
    <v name="dipole">      0.00000000       0.00000000       0.12942382 </v>
    <i name="Tr[quadrupol]"> -12525.52544870 </i>
    <i name="Echarged">      0.00000000 </i>
    <i name="Edipol_quadrupol">      0.00000000 </i>
    <i name="Eion">      0.00000000 </i>
   </dipole>
   <energy>
    <i name="e_fr_energy">   -378.91304932 </i>
    <i name="e_wo_entrp">   -378.03261921 </i>
    <i name="e_0_energy">   -378.47283427 </i>
   </energy>
  </scstep>
  <scstep>
   <time name="diag">    0.38    0.38</time>
   <time name="diis">    0.76    0.81</time>
   <time name="orth">    0.12    0.12</time>
   <time name="total">    1.38    1.43</time>
   <dipole>
    <v name="dipole">      0.00000000       0.00000000       0.15895733 </v>
    <i name="Tr[quadrupol]"> -12525.65652382 </i>
    <i name="Echarged">      0.00000000 </i>
    <i name="Edipol_quadrupol">      0.00000000 </i>
    <i name="Eion">      0.00000000 </i>
   </dipole>
   <energy>
    <i name="e_fr_energy">   -378.05217225 </i>
    <i name="e_wo_entrp">   -377.11383302 </i>
    <i name="e_0_energy">   -377.58300264 </i>
   </energy>
  </scstep>
  <scstep>
   <time name="diag">    0.38    0.38</time>
   <time name="diis">    0.75    0.75</time>
   <time name="orth">    0.12    0.12</time>
   <time name="total">    1.37    1.37</time>
   <dipole>
    <v name="dipole">      0.00000000       0.00000000       0.14661171 </v>
    <i name="Tr[quadrupol]"> -12525.84750781 </i>
    <i name="Echarged">      0.00000000 </i>
    <i name="Edipol_quadrupol">      0.00000000 </i>
    <i name="Eion">      0.00000000 </i>
   </dipole>
   <energy>
    <i name="e_fr_energy">   -377.68880560 </i>
    <i name="e_wo_entrp">   -376.71383303 </i>
    <i name="e_0_energy">   -377.20131932 </i>
   </energy>
  </scstep>
  <scstep>
   <time name="diag">    0.37    0.37</time>
   <time name="diis">    0.73    0.73</time>
   <time name="orth">    0.12    0.12</time>
   <time name="total">    1.35    1.36</time>
   <dipole>
    <v name="dipole">      0.00000000       0.00000000       0.11101667 </v>
    <i name="Tr[quadrupol]"> -12526.00099328 </i>
    <i name="Echarged">      0.00000000 </i>
    <i name="Edipol_quadrupol">      0.00000000 </i>
    <i name="Eion">      0.00000000 </i>
   </dipole>
   <energy>
    <i name="e_fr_energy">   -377.65056881 </i>
    <i name="e_wo_entrp">   -376.65851733 </i>
    <i name="e_0_energy">   -377.15454307 </i>
   </energy>
  </scstep>
  <scstep>
   <time name="diag">    0.38    0.38</time>
   <time name="diis">    0.75    0.75</time>
   <time name="orth">    0.12    0.12</time>
   <time name="total">    1.37    1.37</time>
   <dipole>
    <v name="dipole">      0.00000000       0.00000000       0.07525628 </v>
    <i name="Tr[quadrupol]"> -12526.11869740 </i>
    <i name="Echarged">      0.00000000 </i>
    <i name="Edipol_quadrupol">      0.00000000 </i>
    <i name="Eion">      0.00000000 </i>
   </dipole>
   <energy>
    <i name="e_fr_energy">   -377.68721048 </i>
    <i name="e_wo_entrp">   -376.70389848 </i>
    <i name="e_0_energy">   -377.19555448 </i>
   </energy>
  </scstep>
  <scstep>
   <time name="diag">    0.38    0.38</time>
   <time name="diis">    0.73    0.73</time>
   <time name="orth">    0.12    0.12</time>
   <time name="total">    1.36    1.36</time>
   <dipole>
    <v name="dipole">      0.00000000       0.00000000       0.08732934 </v>
    <i name="Tr[quadrupol]"> -12525.98376495 </i>
    <i name="Echarged">      0.00000000 </i>
    <i name="Edipol_quadrupol">      0.00000000 </i>
    <i name="Eion">      0.00000000 </i>
   </dipole>
   <energy>
    <i name="e_fr_energy">   -377.49031426 </i>
    <i name="e_wo_entrp">   -376.47921862 </i>
    <i name="e_0_energy">   -376.98476644 </i>
   </energy>
  </scstep>
  <scstep>
   <time name="diag">    0.38    0.38</time>
   <time name="diis">    0.74    0.74</time>
   <time name="orth">    0.12    0.12</time>
   <time name="total">    1.37    1.37</time>
   <dipole>
    <v name="dipole">      0.00000000       0.00000000       0.11383943 </v>
    <i name="Tr[quadrupol]"> -12525.89453473 </i>
    <i name="Echarged">      0.00000000 </i>
    <i name="Edipol_quadrupol">      0.00000000 </i>
    <i name="Eion">      0.00000000 </i>
   </dipole>
   <energy>
    <i name="e_fr_energy">   -377.41506635 </i>
    <i name="e_wo_entrp">   -376.40734733 </i>
    <i name="e_0_energy">   -376.91120684 </i>
   </energy>
  </scstep>
  <scstep>
   <time name="diag">    0.38    0.38</time>
   <time name="diis">    0.76    0.76</time>
   <time name="orth">    0.12    0.12</time>
   <time name="total">    1.38    1.38</time>
   <dipole>
    <v name="dipole">      0.00000000       0.00000000       0.12333210 </v>
    <i name="Tr[quadrupol]"> -12525.95031279 </i>
    <i name="Echarged">      0.00000000 </i>
    <i name="Edipol_quadrupol">      0.00000000 </i>
    <i name="Eion">      0.00000000 </i>
   </dipole>
   <energy>
    <i name="e_fr_energy">   -377.34175367 </i>
    <i name="e_wo_entrp">   -376.32543128 </i>
    <i name="e_0_energy">   -376.83359248 </i>
   </energy>
  </scstep>
  <scstep>
   <time name="diag">    0.44    0.44</time>
   <time name="diis">    0.73    0.74</time>
   <time name="orth">    0.12    0.12</time>
   <time name="total">    1.41    1.43</time>
   <dipole>
    <v name="dipole">      0.00000000       0.00000000       0.12113555 </v>
    <i name="Tr[quadrupol]"> -12526.10559371 </i>
    <i name="Echarged">      0.00000000 </i>
    <i name="Edipol_quadrupol">      0.00000000 </i>
    <i name="Eion">      0.00000000 </i>
   </dipole>
   <energy>
    <i name="e_fr_energy">   -377.32859050 </i>
    <i name="e_wo_entrp">   -376.30329811 </i>
    <i name="e_0_energy">   -376.81594430 </i>
   </energy>
  </scstep>
  <scstep>
   <time name="diag">    0.38    0.38</time>
   <time name="diis">    0.74    0.74</time>
   <time name="orth">    0.12    0.13</time>
   <time name="total">    1.36    1.37</time>
   <dipole>
    <v name="dipole">      0.00000000       0.00000000       0.12296443 </v>
    <i name="Tr[quadrupol]"> -12526.16746026 </i>
    <i name="Echarged">      0.00000000 </i>
    <i name="Edipol_quadrupol">      0.00000000 </i>
    <i name="Eion">      0.00000000 </i>
   </dipole>
   <energy>
    <i name="e_fr_energy">   -377.32292482 </i>
    <i name="e_wo_entrp">   -376.29645614 </i>
    <i name="e_0_energy">   -376.80969048 </i>
   </energy>
  </scstep>
  <scstep>
   <time name="diag">    0.37    0.37</time>
   <time name="diis">    0.74    0.74</time>
   <time name="orth">    0.12    0.12</time>
   <time name="total">    1.36    1.36</time>
   <dipole>
    <v name="dipole">      0.00000000       0.00000000       0.12149933 </v>
    <i name="Tr[quadrupol]"> -12526.25831977 </i>
    <i name="Echarged">      0.00000000 </i>
    <i name="Edipol_quadrupol">      0.00000000 </i>
    <i name="Eion">      0.00000000 </i>
   </dipole>
   <energy>
    <i name="e_fr_energy">   -377.32455237 </i>
    <i name="e_wo_entrp">   -376.29862143 </i>
    <i name="e_0_energy">   -376.81158690 </i>
   </energy>
  </scstep>
  <scstep>
   <time name="diag">    0.38    0.38</time>
   <time name="diis">    0.74    0.74</time>
   <time name="orth">    0.18    0.19</time>
   <time name="total">    1.43    1.44</time>
   <dipole>
    <v name="dipole">      0.00000000       0.00000000       0.12371539 </v>
    <i name="Tr[quadrupol]"> -12526.31350871 </i>
    <i name="Echarged">      0.00000000 </i>
    <i name="Edipol_quadrupol">      0.00000000 </i>
    <i name="Eion">      0.00000000 </i>
   </dipole>
   <energy>
    <i name="e_fr_energy">   -377.31582190 </i>
    <i name="e_wo_entrp">   -376.28994794 </i>
    <i name="e_0_energy">   -376.80288492 </i>
   </energy>
  </scstep>
  <scstep>
   <time name="diag">    0.44    0.44</time>
   <time name="diis">    0.83    0.84</time>
   <time name="orth">    0.12    0.12</time>
   <time name="total">    1.52    1.53</time>
   <dipole>
    <v name="dipole">      0.00000000       0.00000000       0.12668338 </v>
    <i name="Tr[quadrupol]"> -12526.34144226 </i>
    <i name="Echarged">      0.00000000 </i>
    <i name="Edipol_quadrupol">      0.00000000 </i>
    <i name="Eion">      0.00000000 </i>
   </dipole>
   <energy>
    <i name="e_fr_energy">   -377.31246548 </i>
    <i name="e_wo_entrp">   -376.28575897 </i>
    <i name="e_0_energy">   -376.79911222 </i>
   </energy>
  </scstep>
  <scstep>
   <time name="diag">    0.38    0.38</time>
   <time name="diis">    0.73    0.76</time>
   <time name="orth">    0.12    0.12</time>
   <time name="total">    1.35    1.39</time>
   <dipole>
    <v name="dipole">      0.00000000       0.00000000       0.13111971 </v>
    <i name="Tr[quadrupol]"> -12526.36301497 </i>
    <i name="Echarged">      0.00000000 </i>
    <i name="Edipol_quadrupol">      0.00000000 </i>
    <i name="Eion">      0.00000000 </i>
   </dipole>
   <energy>
    <i name="e_fr_energy">   -377.31110541 </i>
    <i name="e_wo_entrp">   -376.28606148 </i>
    <i name="e_0_energy">   -376.79858345 </i>
   </energy>
  </scstep>
  <scstep>
   <time name="diag">    0.37    0.37</time>
   <time name="diis">    0.74    0.75</time>
   <time name="orth">    0.12    0.12</time>
   <time name="total">    1.36    1.37</time>
   <dipole>
    <v name="dipole">      0.00000000       0.00000000       0.13456382 </v>
    <i name="Tr[quadrupol]"> -12526.36668383 </i>
    <i name="Echarged">      0.00000000 </i>
    <i name="Edipol_quadrupol">      0.00000000 </i>
    <i name="Eion">      0.00000000 </i>
   </dipole>
   <energy>
    <i name="e_fr_energy">   -377.31092318 </i>
    <i name="e_wo_entrp">   -376.28676914 </i>
    <i name="e_0_energy">   -376.79884616 </i>
   </energy>
  </scstep>
  <scstep>
   <time name="diag">    0.38    0.38</time>
   <time name="diis">    0.72    0.74</time>
   <time name="orth">    0.12    0.12</time>
   <time name="total">    1.35    1.36</time>
   <dipole>
    <v name="dipole">      0.00000000       0.00000000       0.13835278 </v>
    <i name="Tr[quadrupol]"> -12526.39004669 </i>
    <i name="Echarged">      0.00000000 </i>
    <i name="Edipol_quadrupol">      0.00000000 </i>
    <i name="Eion">      0.00000000 </i>
   </dipole>
   <energy>
    <i name="e_fr_energy">   -377.31126502 </i>
    <i name="e_wo_entrp">   -376.28754886 </i>
    <i name="e_0_energy">   -376.79940694 </i>
   </energy>
  </scstep>
  <scstep>
   <time name="diag">    0.37    0.38</time>
   <time name="diis">    0.75    0.75</time>
   <time name="orth">    0.12    0.12</time>
   <time name="total">    1.37    1.37</time>
   <dipole>
    <v name="dipole">      0.00000000       0.00000000       0.14134998 </v>
    <i name="Tr[quadrupol]"> -12526.40338323 </i>
    <i name="Echarged">      0.00000000 </i>
    <i name="Edipol_quadrupol">      0.00000000 </i>
    <i name="Eion">      0.00000000 </i>
   </dipole>
   <energy>
    <i name="e_fr_energy">   -377.31145372 </i>
    <i name="e_wo_entrp">   -376.28780853 </i>
    <i name="e_0_energy">   -376.79963112 </i>
   </energy>
  </scstep>
  <scstep>
   <time name="diag">    0.37    0.37</time>
   <time name="diis">    0.73    0.77</time>
   <time name="orth">    0.18    0.18</time>
   <time name="total">    1.50    1.55</time>
   <dipole>
    <v name="dipole">      0.00000000       0.00000000       0.14290566 </v>
    <i name="Tr[quadrupol]"> -12526.39811281 </i>
    <i name="Echarged">      0.00000000 </i>
    <i name="Edipol_quadrupol">      0.00000000 </i>
    <i name="Eion">      0.00000000 </i>
   </dipole>
   <energy>
    <i name="e_fr_energy">   -377.31161240 </i>
    <i name="e_wo_entrp">   -376.28796049 </i>
    <i name="e_0_energy">   -376.79978645 </i>
   </energy>
  </scstep>
  <scstep>
   <time name="diag">    0.38    0.38</time>
   <time name="diis">    0.75    0.75</time>
   <time name="orth">    0.12    0.12</time>
   <time name="total">    1.52    1.53</time>
   <dipole>
    <v name="dipole">      0.00000000       0.00000000       0.14501154 </v>
    <i name="Tr[quadrupol]"> -12526.40104407 </i>
    <i name="Echarged">      0.00000000 </i>
    <i name="Edipol_quadrupol">      0.00000000 </i>
    <i name="Eion">      0.00000000 </i>
   </dipole>
   <energy>
    <i name="e_fr_energy">   -377.31183293 </i>
    <i name="e_wo_entrp">   -376.28795459 </i>
    <i name="e_0_energy">   -376.79989376 </i>
   </energy>
  </scstep>
  <scstep>
   <time name="diag">    0.49    0.50</time>
   <time name="diis">    0.73    0.73</time>
   <time name="orth">    0.17    0.17</time>
   <time name="total">    1.59    1.61</time>
   <dipole>
    <v name="dipole">      0.00000000       0.00000000       0.14688961 </v>
    <i name="Tr[quadrupol]"> -12526.42280804 </i>
    <i name="Echarged">      0.00000000 </i>
    <i name="Edipol_quadrupol">      0.00000000 </i>
    <i name="Eion">      0.00000000 </i>
   </dipole>
   <energy>
    <i name="e_fr_energy">   -377.31201595 </i>
    <i name="e_wo_entrp">   -376.28804716 </i>
    <i name="e_0_energy">   -376.80003155 </i>
   </energy>
  </scstep>
  <scstep>
   <time name="diag">    0.38    0.38</time>
   <time name="diis">    0.77    0.78</time>
   <time name="orth">    0.12    0.12</time>
   <time name="total">    1.40    1.41</time>
   <dipole>
    <v name="dipole">      0.00000000       0.00000000       0.14815232 </v>
    <i name="Tr[quadrupol]"> -12526.43460493 </i>
    <i name="Echarged">      0.00000000 </i>
    <i name="Edipol_quadrupol">      0.00000000 </i>
    <i name="Eion">      0.00000000 </i>
   </dipole>
   <energy>
    <i name="e_fr_energy">   -377.31211546 </i>
    <i name="e_wo_entrp">   -376.28805825 </i>
    <i name="e_0_energy">   -376.80008686 </i>
   </energy>
  </scstep>
  <scstep>
   <time name="diag">    0.38    0.38</time>
   <time name="diis">    0.60    0.60</time>
   <time name="orth">    0.12    0.12</time>
   <time name="total">    1.23    1.23</time>
   <dipole>
    <v name="dipole">      0.00000000       0.00000000       0.14921855 </v>
    <i name="Tr[quadrupol]"> -12526.44213297 </i>
    <i name="Echarged">      0.00000000 </i>
    <i name="Edipol_quadrupol">      0.00000000 </i>
    <i name="Eion">      0.00000000 </i>
   </dipole>
   <energy>
    <i name="e_fr_energy">   -377.31218495 </i>
    <i name="e_wo_entrp">   -376.28807509 </i>
    <i name="e_0_energy">   -376.80013002 </i>
   </energy>
  </scstep>
  <scstep>
   <time name="diag">    0.38    0.38</time>
   <time name="diis">    0.67    0.69</time>
   <time name="orth">    0.12    0.12</time>
   <time name="total">    1.29    1.31</time>
   <dipole>
    <v name="dipole">      0.00000000       0.00000000       0.15117383 </v>
    <i name="Tr[quadrupol]"> -12526.45483396 </i>
    <i name="Echarged">      0.00000000 </i>
    <i name="Edipol_quadrupol">      0.00000000 </i>
    <i name="Eion">      0.00000000 </i>
   </dipole>
   <energy>
    <i name="e_fr_energy">   -377.31230317 </i>
    <i name="e_wo_entrp">   -376.28822762 </i>
    <i name="e_0_energy">   -376.80026539 </i>
   </energy>
  </scstep>
  <scstep>
   <time name="diag">    0.38    0.38</time>
   <time name="diis">    0.65    0.78</time>
   <time name="orth">    0.12    0.12</time>
   <time name="total">    1.28    1.41</time>
   <dipole>
    <v name="dipole">      0.00000000       0.00000000       0.15541950 </v>
    <i name="Tr[quadrupol]"> -12526.48169917 </i>
    <i name="Echarged">      0.00000000 </i>
    <i name="Edipol_quadrupol">      0.00000000 </i>
    <i name="Eion">      0.00000000 </i>
   </dipole>
   <energy>
    <i name="e_fr_energy">   -377.31254262 </i>
    <i name="e_wo_entrp">   -376.28851806 </i>
    <i name="e_0_energy">   -376.80053034 </i>
   </energy>
  </scstep>
  <scstep>
   <time name="diag">    0.38    0.38</time>
   <time name="diis">    0.65    0.65</time>
   <time name="orth">    0.12    0.12</time>
   <time name="total">    1.28    1.28</time>
   <dipole>
    <v name="dipole">      0.00000000       0.00000000       0.15760974 </v>
    <i name="Tr[quadrupol]"> -12526.49560765 </i>
    <i name="Echarged">      0.00000000 </i>
    <i name="Edipol_quadrupol">      0.00000000 </i>
    <i name="Eion">      0.00000000 </i>
   </dipole>
   <energy>
    <i name="e_fr_energy">   -377.31265691 </i>
    <i name="e_wo_entrp">   -376.28856684 </i>
    <i name="e_0_energy">   -376.80061188 </i>
   </energy>
  </scstep>
  <scstep>
   <time name="diag">    0.38    0.38</time>
   <time name="diis">    0.55    0.55</time>
   <time name="orth">    0.12    0.12</time>
   <time name="total">    1.18    1.18</time>
   <dipole>
    <v name="dipole">      0.00000000       0.00000000       0.15893564 </v>
    <i name="Tr[quadrupol]"> -12526.47422077 </i>
    <i name="Echarged">      0.00000000 </i>
    <i name="Edipol_quadrupol">      0.00000000 </i>
    <i name="Eion">      0.00000000 </i>
   </dipole>
   <energy>
    <i name="e_fr_energy">   -377.31272302 </i>
    <i name="e_wo_entrp">   -376.28861721 </i>
    <i name="e_0_energy">   -376.80067011 </i>
   </energy>
  </scstep>
  <scstep>
   <time name="diag">    0.39    0.39</time>
   <time name="diis">    0.57    0.57</time>
   <time name="orth">    0.12    0.12</time>
   <time name="total">    1.20    1.20</time>
   <dipole>
    <v name="dipole">      0.00000000       0.00000000       0.16132372 </v>
    <i name="Tr[quadrupol]"> -12526.48580428 </i>
    <i name="Echarged">      0.00000000 </i>
    <i name="Edipol_quadrupol">      0.00000000 </i>
    <i name="Eion">      0.00000000 </i>
   </dipole>
   <energy>
    <i name="e_fr_energy">   -377.31282265 </i>
    <i name="e_wo_entrp">   -376.28867815 </i>
    <i name="e_0_energy">   -376.80075040 </i>
   </energy>
  </scstep>
  <scstep>
   <time name="diag">    0.38    0.38</time>
   <time name="diis">    0.59    0.59</time>
   <time name="orth">    0.12    0.12</time>
   <time name="total">    1.22    1.22</time>
   <dipole>
    <v name="dipole">      0.00000000       0.00000000       0.16430571 </v>
    <i name="Tr[quadrupol]"> -12526.49923937 </i>
    <i name="Echarged">      0.00000000 </i>
    <i name="Edipol_quadrupol">      0.00000000 </i>
    <i name="Eion">      0.00000000 </i>
   </dipole>
   <energy>
    <i name="e_fr_energy">   -377.31292513 </i>
    <i name="e_wo_entrp">   -376.28875647 </i>
    <i name="e_0_energy">   -376.80084080 </i>
   </energy>
  </scstep>
  <scstep>
   <time name="diag">    0.38    0.38</time>
   <time name="diis">    0.53    0.53</time>
   <time name="orth">    0.12    0.12</time>
   <time name="total">    1.16    1.16</time>
   <dipole>
    <v name="dipole">      0.00000000       0.00000000       0.16599592 </v>
    <i name="Tr[quadrupol]"> -12526.50670434 </i>
    <i name="Echarged">      0.00000000 </i>
    <i name="Edipol_quadrupol">      0.00000000 </i>
    <i name="Eion">      0.00000000 </i>
   </dipole>
   <energy>
    <i name="e_fr_energy">   -377.31297081 </i>
    <i name="e_wo_entrp">   -376.28879437 </i>
    <i name="e_0_energy">   -376.80088259 </i>
   </energy>
  </scstep>
  <scstep>
   <time name="diag">    0.38    0.38</time>
   <time name="diis">    0.48    0.48</time>
   <time name="orth">    0.12    0.12</time>
   <time name="total">    1.11    1.11</time>
   <dipole>
    <v name="dipole">      0.00000000       0.00000000       0.16724799 </v>
    <i name="Tr[quadrupol]"> -12526.51148939 </i>
    <i name="Echarged">      0.00000000 </i>
    <i name="Edipol_quadrupol">      0.00000000 </i>
    <i name="Eion">      0.00000000 </i>
   </dipole>
   <energy>
    <i name="e_fr_energy">   -377.31300008 </i>
    <i name="e_wo_entrp">   -376.28883425 </i>
    <i name="e_0_energy">   -376.80091717 </i>
   </energy>
  </scstep>
  <scstep>
   <time name="diag">    0.38    0.38</time>
   <time name="diis">    0.42    0.42</time>
   <time name="orth">    0.12    0.13</time>
   <time name="total">    1.05    1.06</time>
   <dipole>
    <v name="dipole">      0.00000000       0.00000000       0.16792203 </v>
    <i name="Tr[quadrupol]"> -12526.51354730 </i>
    <i name="Echarged">      0.00000000 </i>
    <i name="Edipol_quadrupol">      0.00000000 </i>
    <i name="Eion">      0.00000000 </i>
   </dipole>
   <energy>
    <i name="e_fr_energy">   -377.31301559 </i>
    <i name="e_wo_entrp">   -376.28885252 </i>
    <i name="e_0_energy">   -376.80093405 </i>
   </energy>
  </scstep>
  <scstep>
   <time name="diag">    0.38    0.38</time>
   <time name="diis">    0.45    0.45</time>
   <time name="orth">    0.12    0.12</time>
   <time name="total">    1.08    1.08</time>
   <dipole>
    <v name="dipole">      0.00000000       0.00000000       0.16927399 </v>
    <i name="Tr[quadrupol]"> -12526.48685161 </i>
    <i name="Echarged">      0.00000000 </i>
    <i name="Edipol_quadrupol">      0.00000000 </i>
    <i name="Eion">      0.00000000 </i>
   </dipole>
   <energy>
    <i name="e_fr_energy">   -377.31304610 </i>
    <i name="e_wo_entrp">   -376.28885781 </i>
    <i name="e_0_energy">   -376.80095196 </i>
   </energy>
  </scstep>
  <scstep>
   <time name="diag">    0.38    0.38</time>
   <time name="diis">    0.39    0.39</time>
   <time name="orth">    0.12    0.12</time>
   <time name="total">    1.01    1.02</time>
   <dipole>
    <v name="dipole">      0.00000000       0.00000000       0.16996592 </v>
    <i name="Tr[quadrupol]"> -12526.15162801 </i>
    <i name="Echarged">      0.00000000 </i>
    <i name="Edipol_quadrupol">      0.00000000 </i>
    <i name="Eion">      0.00000000 </i>
   </dipole>
   <energy>
    <i name="e_fr_energy">   -377.31305860 </i>
    <i name="e_wo_entrp">   -376.28887575 </i>
    <i name="e_0_energy">   -376.80096718 </i>
   </energy>
  </scstep>
  <scstep>
   <time name="diag">    0.37    0.37</time>
   <time name="diis">    0.38    0.38</time>
   <time name="orth">    0.12    0.12</time>
   <time name="total">    1.00    1.01</time>
   <dipole>
    <v name="dipole">      0.00000000       0.00000000       0.17064305 </v>
    <i name="Tr[quadrupol]"> -12525.99985031 </i>
    <i name="Echarged">      0.00000000 </i>
    <i name="Edipol_quadrupol">      0.00000000 </i>
    <i name="Eion">      0.00000000 </i>
   </dipole>
   <energy>
    <i name="e_fr_energy">   -377.31306718 </i>
    <i name="e_wo_entrp">   -376.28889268 </i>
    <i name="e_0_energy">   -376.80097993 </i>
   </energy>
  </scstep>
  <scstep>
   <time name="diag">    0.38    0.38</time>
   <time name="diis">    0.36    0.36</time>
   <time name="orth">    0.12    0.12</time>
   <time name="total">    0.99    0.99</time>
   <dipole>
    <v name="dipole">      0.00000000       0.00000000       0.17084016 </v>
    <i name="Tr[quadrupol]"> -12525.93943836 </i>
    <i name="Echarged">      0.00000000 </i>
    <i name="Edipol_quadrupol">      0.00000000 </i>
    <i name="Eion">      0.00000000 </i>
   </dipole>
   <energy>
    <i name="e_fr_energy">   -377.31307131 </i>
    <i name="e_wo_entrp">   -376.28888460 </i>
    <i name="e_0_energy">   -376.80097795 </i>
   </energy>
  </scstep>
  <scstep>
   <time name="diag">    0.38    0.38</time>
   <time name="diis">    0.39    0.39</time>
   <time name="orth">    0.12    0.12</time>
   <time name="total">    1.02    1.03</time>
   <dipole>
    <v name="dipole">      0.00000000       0.00000000       0.17092998 </v>
    <i name="Tr[quadrupol]"> -12525.94063078 </i>
    <i name="Echarged">      0.00000000 </i>
    <i name="Edipol_quadrupol">      0.00000000 </i>
    <i name="Eion">      0.00000000 </i>
   </dipole>
   <energy>
    <i name="e_fr_energy">   -377.31307718 </i>
    <i name="e_wo_entrp">   -376.28887014 </i>
    <i name="e_0_energy">   -376.80097366 </i>
   </energy>
  </scstep>
  <scstep>
   <time name="diag">    0.38    0.38</time>
   <time name="diis">    0.34    0.34</time>
   <time name="orth">    0.12    0.12</time>
   <time name="total">    0.97    0.97</time>
   <dipole>
    <v name="dipole">      0.00000000       0.00000000       0.17102486 </v>
    <i name="Tr[quadrupol]"> -12525.94097355 </i>
    <i name="Echarged">      0.00000000 </i>
    <i name="Edipol_quadrupol">      0.00000000 </i>
    <i name="Eion">      0.00000000 </i>
   </dipole>
   <energy>
    <i name="e_fr_energy">   -377.31307937 </i>
    <i name="e_wo_entrp">   -376.28887628 </i>
    <i name="e_0_energy">   -376.80097783 </i>
   </energy>
  </scstep>
  <scstep>
   <time name="diag">    0.37    0.37</time>
   <time name="diis">    0.35    0.35</time>
   <time name="orth">    0.12    0.12</time>
   <time name="total">    0.97    0.97</time>
   <dipole>
    <v name="dipole">      0.00000000       0.00000000       0.17137898 </v>
    <i name="Tr[quadrupol]"> -12526.40109550 </i>
    <i name="Echarged">      0.00000000 </i>
    <i name="Edipol_quadrupol">      0.00000000 </i>
    <i name="Eion">      0.00000000 </i>
   </dipole>
   <energy>
    <i name="e_fr_energy">   -377.31308144 </i>
    <i name="e_wo_entrp">   -376.28890499 </i>
    <i name="e_0_energy">   -376.80099321 </i>
   </energy>
  </scstep>
  <scstep>
   <time name="diag">    0.38    0.38</time>
   <time name="diis">    0.33    0.33</time>
   <time name="orth">    0.12    0.12</time>
   <time name="total">    0.89    0.89</time>
   <dipole>
    <v name="dipole">      0.00000000       0.00000000       0.17170871 </v>
    <i name="Tr[quadrupol]"> -12526.61608322 </i>
    <i name="Echarged">      0.00000000 </i>
    <i name="Edipol_quadrupol">      0.00000000 </i>
    <i name="Eion">      0.00000000 </i>
   </dipole>
   <energy>
    <i name="alphaZ">   1471.37075041 </i>
    <i name="ewald"> 248505.57910100 </i>
    <i name="hartreedc">-297788.63239115 </i>
    <i name="XCdc">    252.10634098 </i>
    <i name="pawpsdc">  58121.81330707 </i>
    <i name="pawaedc"> -56489.61387978 </i>
    <i name="eentropy">     -1.02416337 </i>
    <i name="bandstr">  -1976.78913737 </i>
    <i name="atom">  47527.87699037 </i>
    <i name="e_fr_energy">   -377.31308184 </i>
    <i name="e_wo_entrp">   -376.28891846 </i>
    <i name="e_0_energy">   -376.80100015 </i>
   </energy>
  </scstep>
  <structure>
   <crystal>
    <varray name="basis" >
     <v>       9.71779202       0.00000000       0.00000000 </v>
     <v>       0.00000000      11.22113968       0.00000000 </v>
     <v>       0.00000000       0.00000000      25.00000000 </v>
    </varray>
    <i name="volume">   2726.11754094 </i>
    <varray name="rec_basis" >
     <v>       0.10290403       0.00000000       0.00000000 </v>
     <v>       0.00000000       0.08911751       0.00000000 </v>
     <v>       0.00000000       0.00000000       0.04000000 </v>
    </varray>
   </crystal>
   <varray name="positions" >
    <v>       0.00000000       0.00000000       0.00000000 </v>
    <v>       0.33333333       0.00000000       0.09162022 </v>
    <v>       0.16580591       0.99885275       0.17889860 </v>
    <v>       0.25000000       0.12500000       0.00000000 </v>
    <v>       0.08333333       0.12500000       0.09162022 </v>
    <v>       0.41709151       0.12537788       0.18070334 </v>
    <v>       0.99778261       0.99919373       0.27056661 </v>
    <v>       0.24389454       0.11782535       0.26862274 </v>
    <v>       0.00000000       0.25000000       0.00000000 </v>
    <v>       0.33333333       0.25000000       0.09162022 </v>
    <v>       0.16720913       0.25076603       0.18055974 </v>
    <v>       0.25000000       0.37500000       0.00000000 </v>
    <v>       0.08333333       0.37500000       0.09162022 </v>
    <v>       0.41719567       0.37601279       0.18253593 </v>
    <v>       0.99840353       0.24761795       0.27058882 </v>
    <v>       0.24932676       0.37377372       0.27545284 </v>
    <v>       0.00000000       0.50000000       0.00000000 </v>
    <v>       0.33333333       0.50000000       0.09162022 </v>
    <v>       0.16939198       0.49572808       0.18226139 </v>
    <v>       0.25000000       0.62500000       0.00000000 </v>
    <v>       0.08333333       0.62500000       0.09162022 </v>
    <v>       0.41873332       0.62407548       0.18184195 </v>
    <v>       0.00124280       0.49942112       0.27079222 </v>
    <v>       0.24630625       0.62794037       0.27008007 </v>
    <v>       0.00000000       0.75000000       0.00000000 </v>
    <v>       0.33333333       0.75000000       0.09162022 </v>
    <v>       0.16691918       0.74862111       0.17942809 </v>
    <v>       0.25000000       0.87500000       0.00000000 </v>
    <v>       0.08333333       0.87500000       0.09162022 </v>
    <v>       0.41560480       0.87454182       0.17961624 </v>
    <v>       0.99915783       0.75094027       0.27056285 </v>
    <v>       0.24823970       0.87417089       0.27068595 </v>
    <v>       0.50000000       0.00000000       0.00000000 </v>
    <v>       0.83333333       0.00000000       0.09162022 </v>
    <v>       0.66644964       0.99967772       0.17981287 </v>
    <v>       0.75000000       0.12500000       0.00000000 </v>
    <v>       0.58333333       0.12500000       0.09162022 </v>
    <v>       0.91585810       0.12527412       0.17977355 </v>
    <v>       0.49962985       0.99746051       0.27047378 </v>
    <v>       0.75001261       0.12339743       0.27060053 </v>
    <v>       0.50000000       0.25000000       0.00000000 </v>
    <v>       0.83333333       0.25000000       0.09162022 </v>
    <v>       0.66213557       0.24971398       0.18193179 </v>
    <v>       0.75000000       0.37500000       0.00000000 </v>
    <v>       0.58333333       0.37500000       0.09162022 </v>
    <v>       0.91612701       0.37455132       0.17953752 </v>
    <v>       0.50374586       0.24662669       0.27426296 </v>
    <v>       0.75572012       0.37430460       0.26987808 </v>
    <v>       0.50000000       0.50000000       0.00000000 </v>
    <v>       0.83333333       0.50000000       0.09162022 </v>
    <v>       0.66546014       0.50083943       0.18152722 </v>
    <v>       0.75000000       0.62500000       0.00000000 </v>
    <v>       0.58333333       0.62500000       0.09162022 </v>
    <v>       0.91876601       0.62379762       0.17964226 </v>
    <v>       0.50810291       0.51154261       0.27348930 </v>
    <v>       0.75677874       0.62830562       0.27039795 </v>
    <v>       0.50000000       0.75000000       0.00000000 </v>
    <v>       0.83333333       0.75000000       0.09162022 </v>
    <v>       0.66715009       0.75025042       0.18002084 </v>
    <v>       0.75000000       0.87500000       0.00000000 </v>
    <v>       0.58333333       0.87500000       0.09162022 </v>
    <v>       0.91676353       0.87470173       0.17973933 </v>
    <v>       0.49997408       0.75596102       0.27095133 </v>
    <v>       0.75097484       0.87572807       0.27070954 </v>
    <v>       0.47935714       0.46364111       0.34447646 </v>
    <v>       0.38811686       0.31984582       0.33259976 </v>
   </varray>
  </structure>
  <varray name="forces" >
   <v>      -0.03810464       0.01344999      -0.04481204 </v>
   <v>       0.03997577       0.10755652      -0.22135028 </v>
   <v>       0.01320812      -0.02274741       0.02705020 </v>
   <v>      -0.11810788      -0.12349708      -0.04975982 </v>
   <v>       0.03477941       0.18411702      -0.23744841 </v>
   <v>       0.00836783       0.00477321       0.03136577 </v>
   <v>       0.09565668       0.01226846       0.24234764 </v>
   <v>       0.09339171       0.09634775       0.30888220 </v>
   <v>      -0.06366675       0.00682939      -0.16864754 </v>
   <v>       0.07129610       0.12117734      -0.02505630 </v>
   <v>       0.06013155      -0.04956442       0.00953606 </v>
   <v>      -0.19524789      -0.00693505       0.03197829 </v>
   <v>       0.07849972       0.07598201      -0.04758068 </v>
   <v>       0.11233899       0.08369211       0.04821799 </v>
   <v>       0.05507181      -0.02435162       0.22751926 </v>
   <v>      -0.14515145       0.17762469       0.06613548 </v>
   <v>      -0.07544485       0.00790165      -0.16655375 </v>
   <v>       0.05494413      -0.08647810       0.19525779 </v>
   <v>       0.01964152      -0.04840431      -0.09723269 </v>
   <v>      -0.11353500       0.08470646       0.04125609 </v>
   <v>       0.08292195      -0.21785170      -0.06077208 </v>
   <v>       0.08005251       0.01209728      -0.07436344 </v>
   <v>       0.04020496      -0.06608365       0.18171163 </v>
   <v>       0.10140224      -0.03671180       0.31996817 </v>
   <v>      -0.06305986      -0.00014769      -0.08609532 </v>
   <v>       0.00831578      -0.19027551      -0.16046844 </v>
   <v>       0.07530128       0.05756266       0.03092576 </v>
   <v>      -0.04423018      -0.00910079      -0.28594998 </v>
   <v>       0.05048989      -0.07341787      -0.31525803 </v>
   <v>       0.05892267       0.00203694       0.03857731 </v>
   <v>       0.16924124      -0.09365725       0.22019126 </v>
   <v>       0.09466297      -0.03328391       0.07131077 </v>
   <v>      -0.05889427       0.00313337      -0.04099623 </v>
   <v>       0.01709352      -0.01480965      -0.18754978 </v>
   <v>      -0.01922032       0.02070463      -0.04441492 </v>
   <v>      -0.00195074       0.03054446      -0.08580812 </v>
   <v>      -0.06325162       0.08474937      -0.00977890 </v>
   <v>      -0.04533133      -0.02116317       0.08394252 </v>
   <v>       0.01420712       0.01377216       0.22816453 </v>
   <v>       0.07235009      -0.06983302       0.08553773 </v>
   <v>      -0.03672787      -0.08688090      -0.05583766 </v>
   <v>      -0.19757502      -0.07748568      -0.14947559 </v>
   <v>       0.02188158      -0.00477064       0.00284368 </v>
   <v>       0.03400209      -0.00645734       0.03217258 </v>
   <v>      -0.07717383      -0.02848567       0.15372851 </v>
   <v>       0.02547231       0.03045918      -0.00950555 </v>
   <v>       0.24527472      -0.06298009       0.18102122 </v>
   <v>       0.11696998      -0.01040284       0.06213432 </v>
   <v>      -0.03917350       0.04719724      -0.06714644 </v>
   <v>      -0.16946868       0.04522810      -0.13220413 </v>
   <v>       0.00777733       0.04877183      -0.06720544 </v>
   <v>       0.02514250      -0.00838639      -0.07263118 </v>
   <v>      -0.06479185      -0.03760502       0.04355595 </v>
   <v>       0.01397287      -0.03838760       0.09509340 </v>
   <v>      -0.08466439       0.09646395       0.24074454 </v>
   <v>       0.14333352       0.08422079       0.01485112 </v>
   <v>      -0.10766385      -0.00435582      -0.06546621 </v>
   <v>      -0.04582866      -0.02477254      -0.21184872 </v>
   <v>       0.01342334       0.03234267      -0.04146165 </v>
   <v>      -0.06407294      -0.00137279       0.02179644 </v>
   <v>      -0.02647091      -0.04830647      -0.13596164 </v>
   <v>      -0.02769279      -0.04515838       0.06312482 </v>
   <v>       0.05630828       0.11219340       0.20499917 </v>
   <v>      -0.08852187       0.07343456       0.22296444 </v>
   <v>       0.02635716       0.12067867      -0.21624286 </v>
   <v>      -0.25736233      -0.21789574      -0.19402283 </v>
  </varray>
  <varray name="stress" >
   <v>     -30.70169164       1.26616802       3.34441231 </v>
   <v>       1.26616800     -69.30715664       0.54795204 </v>
   <v>       3.34441227       0.54795203       7.21504523 </v>
  </varray>
  <energy>
   <i name="e_fr_energy">   -412.35517385 </i>
   <i name="e_wo_entrp">   -411.84309216 </i>
   <i name="e_0_energy">     -1.02416337 </i>
  </energy>
  <time name="totalsc">   74.15   75.29</time>
 </calculation>
 <calculation>
  <scstep>
   <time name="dav">    2.18    2.19</time>
   <time name="total">    2.46    2.47</time>
   <dipole>
    <v name="dipole">      0.00000000       0.00000000       0.17214364 </v>
    <i name="Tr[quadrupol]"> -12527.64072872 </i>
    <i name="Echarged">      0.00000000 </i>
    <i name="Edipol_quadrupol">      0.00000000 </i>
    <i name="Eion">      0.00000000 </i>
   </dipole>
   <energy>
    <i name="alphaZ">   1475.37539614 </i>
    <i name="ewald"> 248504.76508233 </i>
    <i name="hartreedc">-297787.81322105 </i>
    <i name="XCdc">    252.10342002 </i>
    <i name="pawpsdc">  58121.81125662 </i>
    <i name="pawaedc"> -56489.61181820 </i>
    <i name="eentropy">     -1.02384888 </i>
    <i name="bandstr">  -1980.79501124 </i>
    <i name="atom">  47527.87699037 </i>
    <i name="e_fr_energy">   -377.31175388 </i>
    <i name="e_wo_entrp">   -376.28790500 </i>
    <i name="e_0_energy">   -376.79982944 </i>
   </energy>
  </scstep>
  <scstep>
   <time name="diag">    0.38    0.38</time>
   <time name="diis">    0.74    0.74</time>
   <time name="orth">    0.23    0.25</time>
   <time name="total">    1.53    1.56</time>
   <dipole>
    <v name="dipole">      0.00000000       0.00000000       0.17425116 </v>
    <i name="Tr[quadrupol]"> -12527.61017141 </i>
    <i name="Echarged">      0.00000000 </i>
    <i name="Edipol_quadrupol">      0.00000000 </i>
    <i name="Eion">      0.00000000 </i>
   </dipole>
   <energy>
    <i name="e_fr_energy">   -377.31381365 </i>
    <i name="e_wo_entrp">   -376.29139170 </i>
    <i name="e_0_energy">   -376.80260267 </i>
   </energy>
  </scstep>
  <scstep>
   <time name="diag">    0.41    0.41</time>
   <time name="diis">    0.75    0.75</time>
   <time name="orth">    0.12    0.12</time>
   <time name="total">    1.40    1.41</time>
   <dipole>
    <v name="dipole">      0.00000000       0.00000000       0.17333820 </v>
    <i name="Tr[quadrupol]"> -12527.65893710 </i>
    <i name="Echarged">      0.00000000 </i>
    <i name="Edipol_quadrupol">      0.00000000 </i>
    <i name="Eion">      0.00000000 </i>
   </dipole>
   <energy>
    <i name="e_fr_energy">   -377.31331861 </i>
    <i name="e_wo_entrp">   -376.28897687 </i>
    <i name="e_0_energy">   -376.80114774 </i>
   </energy>
  </scstep>
  <scstep>
   <time name="diag">    0.38    0.38</time>
   <time name="diis">    0.73    0.75</time>
   <time name="orth">    0.25    0.26</time>
   <time name="total">    1.50    1.54</time>
   <dipole>
    <v name="dipole">      0.00000000       0.00000000       0.16396102 </v>
    <i name="Tr[quadrupol]"> -12527.31556420 </i>
    <i name="Echarged">      0.00000000 </i>
    <i name="Edipol_quadrupol">      0.00000000 </i>
    <i name="Eion">      0.00000000 </i>
   </dipole>
   <energy>
    <i name="e_fr_energy">   -377.31436979 </i>
    <i name="e_wo_entrp">   -376.28946263 </i>
    <i name="e_0_energy">   -376.80191621 </i>
   </energy>
  </scstep>
  <scstep>
   <time name="diag">    0.63    0.64</time>
   <time name="diis">    0.77    0.87</time>
   <time name="orth">    0.21    0.26</time>
   <time name="total">    2.06    2.24</time>
   <dipole>
[...]
       <r>   -16.4971     0.0000     4.0000 </r>
       <r>   -16.4061     0.0000     4.0000 </r>
       <r>   -16.3151     0.0000     4.0000 </r>
       <r>   -16.2241     0.0000     4.0000 </r>
       <r>   -16.1331     0.0000     4.0000 </r>
       <r>   -16.0422     0.0000     4.0000 </r>
       <r>   -15.9512     0.0000     4.0000 </r>
       <r>   -15.8602     0.0000     4.0000 </r>
       <r>   -15.7692     0.0000     4.0000 </r>
       <r>   -15.6782     0.0000     4.0000 </r>
       <r>   -15.5872     0.0000     4.0000 </r>
       <r>   -15.4962     0.0000     4.0000 </r>
       <r>   -15.4052     0.0000     4.0000 </r>
       <r>   -15.3143     0.0000     4.0000 </r>
       <r>   -15.2233     0.0000     4.0000 </r>
       <r>   -15.1323     0.0000     4.0000 </r>
       <r>   -15.0413     0.0000     4.0000 </r>
       <r>   -14.9503     0.0000     4.0000 </r>
       <r>   -14.8593     0.0000     4.0000 </r>
       <r>   -14.7683     0.0000     4.0000 </r>
       <r>   -14.6773     0.0000     4.0000 </r>
       <r>   -14.5864     0.0000     4.0000 </r>
       <r>   -14.4954     0.0000     4.0000 </r>
       <r>   -14.4044     0.0000     4.0000 </r>
       <r>   -14.3134     0.0000     4.0000 </r>
       <r>   -14.2224     0.0000     4.0000 </r>
       <r>   -14.1314     0.0000     4.0000 </r>
       <r>   -14.0404     0.0000     4.0000 </r>
       <r>   -13.9494     0.0000     4.0000 </r>
       <r>   -13.8585     0.0000     4.0000 </r>
       <r>   -13.7675     0.0000     4.0000 </r>
       <r>   -13.6765     0.0000     4.0000 </r>
       <r>   -13.5855     0.0000     4.0000 </r>
       <r>   -13.4945     0.0000     4.0000 </r>
       <r>   -13.4035     0.0000     4.0000 </r>
       <r>   -13.3125     0.0000     4.0000 </r>
       <r>   -13.2215     0.0000     4.0000 </r>
       <r>   -13.1306     0.0000     4.0000 </r>
       <r>   -13.0396     0.0000     4.0000 </r>
       <r>   -12.9486     0.0000     4.0000 </r>
       <r>   -12.8576     0.0000     4.0000 </r>
       <r>   -12.7666     0.0000     4.0000 </r>
       <r>   -12.6756     0.0000     4.0000 </r>
       <r>   -12.5846     0.0000     4.0000 </r>
       <r>   -12.4937     0.0000     4.0000 </r>
       <r>   -12.4027     0.0000     4.0000 </r>
       <r>   -12.3117     0.0000     4.0000 </r>
       <r>   -12.2207     0.0000     4.0000 </r>
       <r>   -12.1297     0.0000     4.0000 </r>
       <r>   -12.0387     0.0000     4.0000 </r>
       <r>   -11.9477     0.0000     4.0000 </r>
       <r>   -11.8567     0.0000     4.0000 </r>
       <r>   -11.7658     0.0000     4.0000 </r>
       <r>   -11.6748     0.0000     4.0000 </r>
       <r>   -11.5838     0.0000     4.0000 </r>
       <r>   -11.4928     0.0000     4.0000 </r>
       <r>   -11.4018     0.0000     4.0000 </r>
       <r>   -11.3108     0.0000     4.0000 </r>
       <r>   -11.2198     0.0000     4.0000 </r>
       <r>   -11.1288     0.0000     4.0000 </r>
       <r>   -11.0379     0.0000     4.0000 </r>
       <r>   -10.9469     0.0000     4.0000 </r>
       <r>   -10.8559     0.0000     4.0000 </r>
       <r>   -10.7649     0.0000     4.0000 </r>
       <r>   -10.6739     0.0000     4.0000 </r>
       <r>   -10.5829     0.0000     4.0000 </r>
       <r>   -10.4919     0.0000     4.0000 </r>
       <r>   -10.4009     0.0000     4.0000 </r>
       <r>   -10.3100     0.0000     4.0000 </r>
       <r>   -10.2190     0.0000     4.0000 </r>
       <r>   -10.1280     0.0000     4.0000 </r>
       <r>   -10.0370     0.0000     4.0000 </r>
       <r>    -9.9460     0.0000     4.0000 </r>
       <r>    -9.8550     0.0000     4.0000 </r>
       <r>    -9.7640     0.0000     4.0000 </r>
       <r>    -9.6730     0.0000     4.0000 </r>
       <r>    -9.5821     0.0000     4.0000 </r>
       <r>    -9.4911     0.0002     4.0000 </r>
       <r>    -9.4001     0.0261     4.0024 </r>
       <r>    -9.3091     0.8536     4.0801 </r>
       <r>    -9.2181     6.1864     4.6429 </r>
       <r>    -9.1271    10.4041     5.5896 </r>
       <r>    -9.0361     4.1275     5.9651 </r>
       <r>    -8.9451     0.3757     5.9993 </r>
       <r>    -8.8542     0.0075     6.0000 </r>
       <r>    -8.7632     0.0000     6.0000 </r>
       <r>    -8.6722     0.0000     6.0000 </r>
       <r>    -8.5812     0.0000     6.0000 </r>
       <r>    -8.4902     0.0000     6.0000 </r>
       <r>    -8.3992     0.0000     6.0000 </r>
       <r>    -8.3082     0.0000     6.0000 </r>
       <r>    -8.2172     0.0000     6.0000 </r>
       <r>    -8.1263     0.0002     6.0000 </r>
       <r>    -8.0353     0.0310     6.0028 </r>
       <r>    -7.9443     1.0128     6.0950 </r>
       <r>    -7.8533     8.4868     6.8672 </r>
       <r>    -7.7623    23.5144     9.0067 </r>
       <r>    -7.6713    24.3164    11.2192 </r>
       <r>    -7.5803     8.3166    11.9759 </r>
       <r>    -7.4894     6.2944    12.5486 </r>
       <r>    -7.3984    18.8898    14.2673 </r>
       <r>    -7.3074    15.6786    15.6939 </r>
       <r>    -7.2164     3.2081    15.9858 </r>
       <r>    -7.1254     0.1549    15.9998 </r>
       <r>    -7.0344     0.0027    16.0001 </r>
       <r>    -6.9434     0.0951    16.0087 </r>
       <r>    -6.8524     1.9126    16.1828 </r>
       <r>    -6.7615     9.1098    17.0116 </r>
       <r>    -6.6705    16.3126    18.4959 </r>
       <r>    -6.5795    33.4733    21.5415 </r>
       <r>    -6.4885    65.9999    27.5467 </r>
       <r>    -6.3975    89.0628    35.6503 </r>
       <r>    -6.3065    73.9915    42.3825 </r>
       <r>    -6.2155    52.6516    47.1732 </r>
       <r>    -6.1245    26.0437    49.5428 </r>
       <r>    -6.0336     8.8901    50.3517 </r>
       <r>    -5.9426    16.2850    51.8334 </r>
       <r>    -5.8516    36.7227    55.1747 </r>
       <r>    -5.7606    66.4367    61.2196 </r>
       <r>    -5.6696    62.7232    66.9266 </r>
       <r>    -5.5786    61.4205    72.5151 </r>
       <r>    -5.4876    93.3966    81.0130 </r>
       <r>    -5.3966   117.5466    91.7083 </r>
       <r>    -5.3057   123.3963   102.9358 </r>
       <r>    -5.2147   100.4620   112.0765 </r>
       <r>    -5.1237    67.8461   118.2497 </r>
       <r>    -5.0327    63.1990   124.0000 </r>
       <r>    -4.9417    71.0069   130.4607 </r>
       <r>    -4.8507    52.4591   135.2338 </r>
       <r>    -4.7597    37.0014   138.6005 </r>
       <r>    -4.6687    59.0692   143.9750 </r>
       <r>    -4.5778   105.5256   153.5765 </r>
       <r>    -4.4868   115.2223   164.0603 </r>
       <r>    -4.3958    76.3196   171.0044 </r>
       <r>    -4.3048    64.5928   176.8815 </r>
       <r>    -4.2138    86.6692   184.7673 </r>
       <r>    -4.1228   113.4782   195.0924 </r>
       <r>    -4.0318   122.6600   206.2529 </r>
       <r>    -3.9408   100.3441   215.3829 </r>
       <r>    -3.8499    66.0402   221.3917 </r>
       <r>    -3.7589    47.8658   225.7469 </r>
       <r>    -3.6679    68.0945   231.9426 </r>
       <r>    -3.5769    91.1968   240.2404 </r>
       <r>    -3.4859    89.2458   248.3606 </r>
       <r>    -3.3949   102.0147   257.6427 </r>
       <r>    -3.3039   132.1687   269.6683 </r>
       <r>    -3.2129   163.6849   284.5616 </r>
       <r>    -3.1220   154.4265   298.6124 </r>
       <r>    -3.0310   112.3036   308.8306 </r>
       <r>    -2.9400    92.5994   317.2560 </r>
       <r>    -2.8490   137.9469   329.8074 </r>
       <r>    -2.7580   163.1261   344.6498 </r>
       <r>    -2.6670   144.5407   357.8012 </r>
       <r>    -2.5760   113.2397   368.1045 </r>
       <r>    -2.4850   100.7660   377.2730 </r>
       <r>    -2.3941   120.0318   388.1943 </r>
       <r>    -2.3031   113.5348   398.5246 </r>
       <r>    -2.2121    76.7094   405.5041 </r>
       <r>    -2.1211    62.2998   411.1726 </r>
       <r>    -2.0301    64.6219   417.0524 </r>
       <r>    -1.9391    82.4612   424.5553 </r>
       <r>    -1.8481   118.1142   435.3022 </r>
       <r>    -1.7572   142.1005   448.2316 </r>
       <r>    -1.6662   109.2860   458.1752 </r>
       <r>    -1.5752    77.1140   465.1916 </r>
       <r>    -1.4842    84.2308   472.8555 </r>
       <r>    -1.3932    85.7980   480.6621 </r>
       <r>    -1.3022    77.5530   487.7184 </r>
       <r>    -1.2112    90.1435   495.9203 </r>
       <r>    -1.1202   107.5508   505.7060 </r>
       <r>    -1.0293    97.4435   514.5722 </r>
       <r>    -0.9383    93.1277   523.0456 </r>
       <r>    -0.8473   105.3540   532.6315 </r>
       <r>    -0.7563   109.1863   542.5660 </r>
       <r>    -0.6653    82.9939   550.1174 </r>
       <r>    -0.5743    59.2937   555.5124 </r>
       <r>    -0.4833    57.8738   560.7782 </r>
       <r>    -0.3923    64.2530   566.6244 </r>
       <r>    -0.3014    84.2632   574.2913 </r>
       <r>    -0.2104    97.9360   583.2022 </r>
       <r>    -0.1194    90.1661   591.4062 </r>
       <r>    -0.0284    78.5592   598.5541 </r>
       <r>     0.0626   101.4289   607.7828 </r>
       <r>     0.1536   137.0951   620.2567 </r>
       <r>     0.2446   176.5160   636.3174 </r>
       <r>     0.3356   208.7067   655.3071 </r>
       <r>     0.4265   147.1962   668.7001 </r>
       <r>     0.5175    88.7842   676.7783 </r>
       <r>     0.6085    82.0154   684.2407 </r>
       <r>     0.6995    80.3844   691.5546 </r>
       <r>     0.7905    68.3144   697.7704 </r>
       <r>     0.8815    36.5788   701.0986 </r>
       <r>     0.9725    10.0022   702.0086 </r>
       <r>     1.0635     8.9968   702.8272 </r>
       <r>     1.1544    25.4994   705.1474 </r>
       <r>     1.2454    34.0775   708.2480 </r>
       <r>     1.3364    20.7057   710.1319 </r>
       <r>     1.4274    13.3536   711.3469 </r>
       <r>     1.5184    12.2674   712.4631 </r>
       <r>     1.6094    17.2918   714.0364 </r>
       <r>     1.7004    20.4633   715.8983 </r>
       <r>     1.7914    16.0866   717.3620 </r>
       <r>     1.8823     6.5594   717.9588 </r>
       <r>     1.9733     4.8976   718.4045 </r>
       <r>     2.0643    17.4638   719.9935 </r>
       <r>     2.1553    27.0560   722.4552 </r>
       <r>     2.2463    14.7335   723.7958 </r>
       <r>     2.3373     3.8113   724.1425 </r>
       <r>     2.4283     9.5572   725.0121 </r>
       <r>     2.5193    21.1143   726.9333 </r>
       <r>     2.6102    36.3646   730.2420 </r>
       <r>     2.7012    47.1135   734.5287 </r>
       <r>     2.7922    32.2021   737.4587 </r>
       <r>     2.8832    23.8064   739.6248 </r>
       <r>     2.9742    34.5164   742.7653 </r>
       <r>     3.0652    29.8206   745.4786 </r>
       <r>     3.1562    18.0058   747.1169 </r>
       <r>     3.2471    24.6816   749.3626 </r>
       <r>     3.3381    24.3121   751.5747 </r>
       <r>     3.4291    15.2055   752.9582 </r>
       <r>     3.5201     9.2743   753.8021 </r>
       <r>     3.6111     2.5638   754.0354 </r>
       <r>     3.7021     6.3442   754.6126 </r>
       <r>     3.7931    23.8637   756.7839 </r>
       <r>     3.8841    33.4190   759.8246 </r>
       <r>     3.9750    21.5833   761.7884 </r>
       <r>     4.0660    17.1142   763.3456 </r>
       <r>     4.1570    20.0628   765.1710 </r>
       <r>     4.2480    12.6039   766.3178 </r>
       <r>     4.3390    19.7597   768.1157 </r>
       <r>     4.4300    27.3868   770.6076 </r>
       <r>     4.5210    27.4790   773.1078 </r>
       <r>     4.6120    21.9118   775.1015 </r>
       <r>     4.7029    16.6236   776.6140 </r>
       <r>     4.7939    11.6312   777.6723 </r>
       <r>     4.8849     3.3775   777.9796 </r>
       <r>     4.9759     1.1285   778.0823 </r>
       <r>     5.0669     7.1910   778.7366 </r>
       <r>     5.1579    17.1310   780.2953 </r>
       <r>     5.2489    15.2240   781.6805 </r>
       <r>     5.3399    10.2268   782.6110 </r>
       <r>     5.4308    10.7226   783.5866 </r>
       <r>     5.5218     4.1559   783.9648 </r>
       <r>     5.6128     0.3797   783.9993 </r>
       <r>     5.7038     0.0076   784.0000 </r>
       <r>     5.7948     0.0000   784.0000 </r>
       <r>     5.8858     0.0000   784.0000 </r>
       <r>     5.9768     0.0000   784.0000 </r>
       <r>     6.0678     0.0000   784.0000 </r>
       <r>     6.1587     0.0000   784.0000 </r>
       <r>     6.2497     0.0000   784.0000 </r>
       <r>     6.3407     0.0000   784.0000 </r>
       <r>     6.4317     0.0000   784.0000 </r>
       <r>     6.5227     0.0000   784.0000 </r>
       <r>     6.6137     0.0000   784.0000 </r>
      </set>
     </set>
    </array>
   </total>
  </dos>
 </calculation>
 <structure name="finalpos" >
  <crystal>
   <varray name="basis" >
    <v>       9.71779202       0.00000000       0.00000000 </v>
    <v>       0.00000000      11.22113968       0.00000000 </v>
    <v>       0.00000000       0.00000000      25.00000000 </v>
   </varray>
   <i name="volume">   2726.11754094 </i>
   <varray name="rec_basis" >
    <v>       0.10290403       0.00000000       0.00000000 </v>
    <v>       0.00000000       0.08911751       0.00000000 </v>
    <v>       0.00000000       0.00000000       0.04000000 </v>
   </varray>
  </crystal>
  <varray name="positions" >
   <v>       0.00000000       0.00000000       0.00000000 </v>
   <v>       0.33333333       0.00000000       0.09162022 </v>
   <v>       0.16580591       0.99885275       0.17889860 </v>
   <v>       0.25000000       0.12500000       0.00000000 </v>
   <v>       0.08333333       0.12500000       0.09162022 </v>
   <v>       0.41709151       0.12537788       0.18070334 </v>
   <v>       0.99778261       0.99919373       0.27056661 </v>
   <v>       0.24389454       0.11782535       0.26862274 </v>
   <v>       0.00000000       0.25000000       0.00000000 </v>
   <v>       0.33333333       0.25000000       0.09162022 </v>
   <v>       0.16720913       0.25076603       0.18055974 </v>
   <v>       0.25000000       0.37500000       0.00000000 </v>
   <v>       0.08333333       0.37500000       0.09162022 </v>
   <v>       0.41719567       0.37601279       0.18253593 </v>
   <v>       0.99840353       0.24761795       0.27058882 </v>
   <v>       0.24932676       0.37377372       0.27545284 </v>
   <v>       0.00000000       0.50000000       0.00000000 </v>
   <v>       0.33333333       0.50000000       0.09162022 </v>
   <v>       0.16939198       0.49572808       0.18226139 </v>
   <v>       0.25000000       0.62500000       0.00000000 </v>
   <v>       0.08333333       0.62500000       0.09162022 </v>
   <v>       0.41873332       0.62407548       0.18184195 </v>
   <v>       0.00124280       0.49942112       0.27079222 </v>
   <v>       0.24630625       0.62794037       0.27008007 </v>
   <v>       0.00000000       0.75000000       0.00000000 </v>
   <v>       0.33333333       0.75000000       0.09162022 </v>
   <v>       0.16691918       0.74862111       0.17942809 </v>
   <v>       0.25000000       0.87500000       0.00000000 </v>
   <v>       0.08333333       0.87500000       0.09162022 </v>
   <v>       0.41560480       0.87454182       0.17961624 </v>
   <v>       0.99915783       0.75094027       0.27056285 </v>
   <v>       0.24823970       0.87417089       0.27068595 </v>
   <v>       0.50000000       0.00000000       0.00000000 </v>
   <v>       0.83333333       0.00000000       0.09162022 </v>
   <v>       0.66644964       0.99967772       0.17981287 </v>
   <v>       0.75000000       0.12500000       0.00000000 </v>
   <v>       0.58333333       0.12500000       0.09162022 </v>
   <v>       0.91585810       0.12527412       0.17977355 </v>
   <v>       0.49962985       0.99746051       0.27047378 </v>
   <v>       0.75001261       0.12339743       0.27060053 </v>
   <v>       0.50000000       0.25000000       0.00000000 </v>
   <v>       0.83333333       0.25000000       0.09162022 </v>
   <v>       0.66213557       0.24971398       0.18193179 </v>
   <v>       0.75000000       0.37500000       0.00000000 </v>
   <v>       0.58333333       0.37500000       0.09162022 </v>
   <v>       0.91612701       0.37455132       0.17953752 </v>
   <v>       0.50374586       0.24662669       0.27426296 </v>
   <v>       0.75572012       0.37430460       0.26987808 </v>
   <v>       0.50000000       0.50000000       0.00000000 </v>
   <v>       0.83333333       0.50000000       0.09162022 </v>
   <v>       0.66546014       0.50083943       0.18152722 </v>
   <v>       0.75000000       0.62500000       0.00000000 </v>
   <v>       0.58333333       0.62500000       0.09162022 </v>
   <v>       0.91876601       0.62379762       0.17964226 </v>
   <v>       0.50810291       0.51154261       0.27348930 </v>
   <v>       0.75677874       0.62830562       0.27039795 </v>
   <v>       0.50000000       0.75000000       0.00000000 </v>
   <v>       0.83333333       0.75000000       0.09162022 </v>
   <v>       0.66715009       0.75025042       0.18002084 </v>
   <v>       0.75000000       0.87500000       0.00000000 </v>
   <v>       0.58333333       0.87500000       0.09162022 </v>
   <v>       0.91676353       0.87470173       0.17973933 </v>
   <v>       0.49997408       0.75596102       0.27095133 </v>
   <v>       0.75097484       0.87572807       0.27070954 </v>
   <v>       0.47935714       0.46364111       0.34447646 </v>
   <v>       0.38811686       0.31984582       0.33199976 </v>
  </varray>
  <varray name="selective"  type="logical" >
   <v type="logical" >  F  F  F </v>
   <v type="logical" >  F  F  F </v>
   <v type="logical" >  F  F  F </v>
   <v type="logical" >  F  F  F </v>
   <v type="logical" >  F  F  F </v>
   <v type="logical" >  F  F  F </v>
   <v type="logical" >  F  F  F </v>
   <v type="logical" >  F  F  F </v>
   <v type="logical" >  F  F  F </v>
   <v type="logical" >  F  F  F </v>
   <v type="logical" >  F  F  F </v>
   <v type="logical" >  F  F  F </v>
   <v type="logical" >  F  F  F </v>
   <v type="logical" >  F  F  F </v>
   <v type="logical" >  F  F  F </v>
   <v type="logical" >  F  F  F </v>
   <v type="logical" >  F  F  F </v>
   <v type="logical" >  F  F  F </v>
   <v type="logical" >  F  F  F </v>
   <v type="logical" >  F  F  F </v>
   <v type="logical" >  F  F  F </v>
   <v type="logical" >  F  F  F </v>
   <v type="logical" >  F  F  F </v>
   <v type="logical" >  F  F  F </v>
   <v type="logical" >  F  F  F </v>
   <v type="logical" >  F  F  F </v>
   <v type="logical" >  F  F  F </v>
   <v type="logical" >  F  F  F </v>
   <v type="logical" >  F  F  F </v>
   <v type="logical" >  F  F  F </v>
   <v type="logical" >  F  F  F </v>
   <v type="logical" >  F  F  F </v>
   <v type="logical" >  F  F  F </v>
   <v type="logical" >  F  F  F </v>
   <v type="logical" >  F  F  F </v>
   <v type="logical" >  F  F  F </v>
   <v type="logical" >  F  F  F </v>
   <v type="logical" >  F  F  F </v>
   <v type="logical" >  F  F  F </v>
   <v type="logical" >  F  F  F </v>
   <v type="logical" >  F  F  F </v>
   <v type="logical" >  F  F  F </v>
   <v type="logical" >  F  F  F </v>
   <v type="logical" >  F  F  F </v>
   <v type="logical" >  F  F  F </v>
   <v type="logical" >  F  F  F </v>
   <v type="logical" >  F  F  F </v>
   <v type="logical" >  F  F  F </v>
   <v type="logical" >  F  F  F </v>
   <v type="logical" >  F  F  F </v>
   <v type="logical" >  F  F  F </v>
   <v type="logical" >  F  F  F </v>
   <v type="logical" >  F  F  F </v>
   <v type="logical" >  F  F  F </v>
   <v type="logical" >  F  F  F </v>
   <v type="logical" >  F  F  F </v>
   <v type="logical" >  F  F  F </v>
   <v type="logical" >  F  F  F </v>
   <v type="logical" >  F  F  F </v>
   <v type="logical" >  F  F  F </v>
   <v type="logical" >  F  F  F </v>
   <v type="logical" >  F  F  F </v>
   <v type="logical" >  F  F  F </v>
   <v type="logical" >  F  F  F </v>
   <v type="logical" >  T  T  T </v>
   <v type="logical" >  T  T  T </v>
  </varray>
  <nose>
   <v>      -3.00000000       0.00000000       0.00010000       0.00010000 </v>
  </nose>
 </structure>
</modeling>
