3072
 Atoms. Timestep: 0
Pt 0 0 0
Pt 3.22304 0 2.27903
Pt 1.61152 0 4.55806
Pt 2.41728 1.39562 0
Pt 0.80576 1.39562 2.27903
Pt 4.0288 1.39562 4.55806
Pt 0 0 6.8371
Pt 3.22304 0 9.11613
Pt 1.61152 0 11.3952
Pt 2.41728 1.39562 6.8371
Pt 0.80576 1.39562 9.11613
Pt 4.0288 1.39562 11.3952
Pt 0 0 13.6742
Pt 3.22304 0 15.9532
Pt 1.61152 0 18.2323
Pt 2.41728 1.39562 13.6742
Pt 0.80576 1.39562 15.9532
Pt 4.0288 1.39562 18.2323
Pt 0 0 20.5113
Pt 3.22304 0 22.7903
Pt 1.61152 0 25.0694
Pt 2.41728 1.39562 20.5113
Pt 0.80576 1.39562 22.7903
Pt 4.0288 1.39562 25.0694
Pt 0 2.79123 0
Pt 3.22304 2.79123 2.27903
Pt 1.61152 2.79123 4.55806
Pt 2.41728 4.18685 0
Pt 0.80576 4.18685 2.27903
Pt 4.0288 4.18685 4.55806
Pt 0 2.79123 6.8371
Pt 3.22304 2.79123 9.11613
Pt 1.61152 2.79123 11.3952
Pt 2.41728 4.18685 6.8371
Pt 0.80576 4.18685 9.11613
Pt 4.0288 4.18685 11.3952
Pt 0 2.79123 13.6742
Pt 3.22304 2.79123 15.9532
Pt 1.61152 2.79123 18.2323
Pt 2.41728 4.18685 13.6742
Pt 0.80576 4.18685 15.9532
Pt 4.0288 4.18685 18.2323
Pt 0 2.79123 20.5113
Pt 3.22304 2.79123 22.7903
Pt 1.61152 2.79123 25.0694
Pt 2.41728 4.18685 20.5113
Pt 0.80576 4.18685 22.7903
Pt 4.0288 4.18685 25.0694
Pt 0 5.58247 0
Pt 3.22304 5.58247 2.27903
Pt 1.61152 5.58247 4.55806
Pt 2.41728 6.97808 0
Pt 0.80576 6.97808 2.27903
Pt 4.0288 6.97808 4.55806
Pt 0 5.58247 6.8371
Pt 3.22304 5.58247 9.11613
Pt 1.61152 5.58247 11.3952
Pt 2.41728 6.97808 6.8371
Pt 0.80576 6.97808 9.11613
Pt 4.0288 6.97808 11.3952
Pt 0 5.58247 13.6742
Pt 3.22304 5.58247 15.9532
Pt 1.61152 5.58247 18.2323
Pt 2.41728 6.97808 13.6742
Pt 0.80576 6.97808 15.9532
Pt 4.0288 6.97808 18.2323
Pt 0 5.58247 20.5113
Pt 3.22304 5.58247 22.7903
Pt 1.61152 5.58247 25.0694
Pt 2.41728 6.97808 20.5113
Pt 0.80576 6.97808 22.7903
Pt 4.0288 6.97808 25.0694
Pt 0 8.3737 0
Pt 3.22304 8.3737 2.27903
Pt 1.61152 8.3737 4.55806
Pt 2.41728 9.76932 0
Pt 0.80576 9.76932 2.27903
Pt 4.0288 9.76932 4.55806
Pt 0 8.3737 6.8371
Pt 3.22304 8.3737 9.11613
Pt 1.61152 8.3737 11.3952
Pt 2.41728 9.76932 6.8371
Pt 0.80576 9.76932 9.11613
Pt 4.0288 9.76932 11.3952
Pt 0 8.3737 13.6742
Pt 3.22304 8.3737 15.9532
Pt 1.61152 8.3737 18.2323
Pt 2.41728 9.76932 13.6742
Pt 0.80576 9.76932 15.9532
Pt 4.0288 9.76932 18.2323
Pt 0 8.3737 20.5113
Pt 3.22304 8.3737 22.7903
Pt 1.61152 8.3737 25.0694
Pt 2.41728 9.76932 20.5113
Pt 0.80576 9.76932 22.7903
Pt 4.0288 9.76932 25.0694
Pt 0 11.1649 0
Pt 3.22304 11.1649 2.27903
Pt 1.61152 11.1649 4.55806
Pt 2.41728 12.5605 0
Pt 0.80576 12.5605 2.27903
Pt 4.0288 12.5605 4.55806
Pt 0 11.1649 6.8371
Pt 3.22304 11.1649 9.11613
Pt 1.61152 11.1649 11.3952
Pt 2.41728 12.5605 6.8371
Pt 0.80576 12.5605 9.11613
Pt 4.0288 12.5605 11.3952
Pt 0 11.1649 13.6742
Pt 3.22304 11.1649 15.9532
Pt 1.61152 11.1649 18.2323
Pt 2.41728 12.5605 13.6742
Pt 0.80576 12.5605 15.9532
Pt 4.0288 12.5605 18.2323
Pt 0 11.1649 20.5113
Pt 3.22304 11.1649 22.7903
Pt 1.61152 11.1649 25.0694
Pt 2.41728 12.5605 20.5113
Pt 0.80576 12.5605 22.7903
Pt 4.0288 12.5605 25.0694
Pt 0 13.9562 0
Pt 3.22304 13.9562 2.27903
Pt 1.61152 13.9562 4.55806
Pt 2.41728 15.3518 0
Pt 0.80576 15.3518 2.27903
Pt 4.0288 15.3518 4.55806
Pt 0 13.9562 6.8371
Pt 3.22304 13.9562 9.11613
Pt 1.61152 13.9562 11.3952
Pt 2.41728 15.3518 6.8371
Pt 0.80576 15.3518 9.11613
Pt 4.0288 15.3518 11.3952
Pt 0 13.9562 13.6742
Pt 3.22304 13.9562 15.9532
Pt 1.61152 13.9562 18.2323
Pt 2.41728 15.3518 13.6742
Pt 0.80576 15.3518 15.9532
Pt 4.0288 15.3518 18.2323
Pt 0 13.9562 20.5113
Pt 3.22304 13.9562 22.7903
Pt 1.61152 13.9562 25.0694
Pt 2.41728 15.3518 20.5113
Pt 0.80576 15.3518 22.7903
Pt 4.0288 15.3518 25.0694
Pt 0 16.7474 0
Pt 3.22304 16.7474 2.27903
Pt 1.61152 16.7474 4.55806
Pt 2.41728 18.143 0
Pt 0.80576 18.143 2.27903
Pt 4.0288 18.143 4.55806
Pt 0 16.7474 6.8371
Pt 3.22304 16.7474 9.11613
Pt 1.61152 16.7474 11.3952
Pt 2.41728 18.143 6.8371
Pt 0.80576 18.143 9.11613
Pt 4.0288 18.143 11.3952
Pt 0 16.7474 13.6742
Pt 3.22304 16.7474 15.9532
Pt 1.61152 16.7474 18.2323
Pt 2.41728 18.143 13.6742
Pt 0.80576 18.143 15.9532
Pt 4.0288 18.143 18.2323
Pt 0 16.7474 20.5113
Pt 3.22304 16.7474 22.7903
Pt 1.61152 16.7474 25.0694
Pt 2.41728 18.143 20.5113
Pt 0.80576 18.143 22.7903
Pt 4.0288 18.143 25.0694
Pt 0 19.5386 0
Pt 3.22304 19.5386 2.27903
Pt 1.61152 19.5386 4.55806
Pt 2.41728 20.9342 0
Pt 0.80576 20.9342 2.27903
Pt 4.0288 20.9342 4.55806
Pt 0 19.5386 6.8371
Pt 3.22304 19.5386 9.11613
Pt 1.61152 19.5386 11.3952
Pt 2.41728 20.9342 6.8371
Pt 0.80576 20.9342 9.11613
Pt 4.0288 20.9342 11.3952
Pt 0 19.5386 13.6742
Pt 3.22304 19.5386 15.9532
Pt 1.61152 19.5386 18.2323
Pt 2.41728 20.9342 13.6742
Pt 0.80576 20.9342 15.9532
Pt 4.0288 20.9342 18.2323
Pt 0 19.5386 20.5113
Pt 3.22304 19.5386 22.7903
Pt 1.61152 19.5386 25.0694
Pt 2.41728 20.9342 20.5113
Pt 0.80576 20.9342 22.7903
Pt 4.0288 20.9342 25.0694
Pt 0 22.3299 0
Pt 3.22304 22.3299 2.27903
Pt 1.61152 22.3299 4.55806
Pt 2.41728 23.7255 0
Pt 0.80576 23.7255 2.27903
Pt 4.0288 23.7255 4.55806
Pt 0 22.3299 6.8371
Pt 3.22304 22.3299 9.11613
Pt 1.61152 22.3299 11.3952
Pt 2.41728 23.7255 6.8371
Pt 0.80576 23.7255 9.11613
Pt 4.0288 23.7255 11.3952
Pt 0 22.3299 13.6742
Pt 3.22304 22.3299 15.9532
Pt 1.61152 22.3299 18.2323
Pt 2.41728 23.7255 13.6742
Pt 0.80576 23.7255 15.9532
Pt 4.0288 23.7255 18.2323
Pt 0 22.3299 20.5113
Pt 3.22304 22.3299 22.7903
Pt 1.61152 22.3299 25.0694
Pt 2.41728 23.7255 20.5113
Pt 0.80576 23.7255 22.7903
Pt 4.0288 23.7255 25.0694
Pt 0 25.1211 0
Pt 3.22304 25.1211 2.27903
Pt 1.61152 25.1211 4.55806
Pt 2.41728 26.5167 0
Pt 0.80576 26.5167 2.27903
Pt 4.0288 26.5167 4.55806
Pt 0 25.1211 6.8371
Pt 3.22304 25.1211 9.11613
Pt 1.61152 25.1211 11.3952
Pt 2.41728 26.5167 6.8371
Pt 0.80576 26.5167 9.11613
Pt 4.0288 26.5167 11.3952
Pt 0 25.1211 13.6742
Pt 3.22304 25.1211 15.9532
Pt 1.61152 25.1211 18.2323
Pt 2.41728 26.5167 13.6742
Pt 0.80576 26.5167 15.9532
Pt 4.0288 26.5167 18.2323
Pt 0 25.1211 20.5113
Pt 3.22304 25.1211 22.7903
Pt 1.61152 25.1211 25.0694
Pt 2.41728 26.5167 20.5113
Pt 0.80576 26.5167 22.7903
Pt 4.0288 26.5167 25.0694
Pt 0 27.9123 0
Pt 3.22304 27.9123 2.27903
Pt 1.61152 27.9123 4.55806
Pt 2.41728 29.3079 0
Pt 0.80576 29.3079 2.27903
Pt 4.0288 29.3079 4.55806
Pt 0 27.9123 6.8371
Pt 3.22304 27.9123 9.11613
Pt 1.61152 27.9123 11.3952
Pt 2.41728 29.3079 6.8371
Pt 0.80576 29.3079 9.11613
Pt 4.0288 29.3079 11.3952
Pt 0 27.9123 13.6742
Pt 3.22304 27.9123 15.9532
Pt 1.61152 27.9123 18.2323
Pt 2.41728 29.3079 13.6742
Pt 0.80576 29.3079 15.9532
Pt 4.0288 29.3079 18.2323
Pt 0 27.9123 20.5113
Pt 3.22304 27.9123 22.7903
Pt 1.61152 27.9123 25.0694
Pt 2.41728 29.3079 20.5113
Pt 0.80576 29.3079 22.7903
Pt 4.0288 29.3079 25.0694
Pt 0 30.7036 0
Pt 3.22304 30.7036 2.27903
Pt 1.61152 30.7036 4.55806
Pt 2.41728 32.0992 0
Pt 0.80576 32.0992 2.27903
Pt 4.0288 32.0992 4.55806
Pt 0 30.7036 6.8371
Pt 3.22304 30.7036 9.11613
Pt 1.61152 30.7036 11.3952
Pt 2.41728 32.0992 6.8371
Pt 0.80576 32.0992 9.11613
Pt 4.0288 32.0992 11.3952
Pt 0 30.7036 13.6742
Pt 3.22304 30.7036 15.9532
Pt 1.61152 30.7036 18.2323
Pt 2.41728 32.0992 13.6742
Pt 0.80576 32.0992 15.9532
Pt 4.0288 32.0992 18.2323
Pt 0 30.7036 20.5113
Pt 3.22304 30.7036 22.7903
Pt 1.61152 30.7036 25.0694
Pt 2.41728 32.0992 20.5113
Pt 0.80576 32.0992 22.7903
Pt 4.0288 32.0992 25.0694
Pt 0 33.4948 0
Pt 3.22304 33.4948 2.27903
Pt 1.61152 33.4948 4.55806
Pt 2.41728 34.8904 0
Pt 0.80576 34.8904 2.27903
Pt 4.0288 34.8904 4.55806
Pt 0 33.4948 6.8371
Pt 3.22304 33.4948 9.11613
Pt 1.61152 33.4948 11.3952
Pt 2.41728 34.8904 6.8371
Pt 0.80576 34.8904 9.11613
Pt 4.0288 34.8904 11.3952
Pt 0 33.4948 13.6742
Pt 3.22304 33.4948 15.9532
Pt 1.61152 33.4948 18.2323
Pt 2.41728 34.8904 13.6742
Pt 0.80576 34.8904 15.9532
Pt 4.0288 34.8904 18.2323
Pt 0 33.4948 20.5113
Pt 3.22304 33.4948 22.7903
Pt 1.61152 33.4948 25.0694
Pt 2.41728 34.8904 20.5113
Pt 0.80576 34.8904 22.7903
Pt 4.0288 34.8904 25.0694
Pt 0 36.286 0
Pt 3.22304 36.286 2.27903
Pt 1.61152 36.286 4.55806
Pt 2.41728 37.6816 0
Pt 0.80576 37.6816 2.27903
Pt 4.0288 37.6816 4.55806
Pt 0 36.286 6.8371
Pt 3.22304 36.286 9.11613
Pt 1.61152 36.286 11.3952
Pt 2.41728 37.6816 6.8371
Pt 0.80576 37.6816 9.11613
Pt 4.0288 37.6816 11.3952
Pt 0 36.286 13.6742
Pt 3.22304 36.286 15.9532
Pt 1.61152 36.286 18.2323
Pt 2.41728 37.6816 13.6742
Pt 0.80576 37.6816 15.9532
Pt 4.0288 37.6816 18.2323
Pt 0 36.286 20.5113
Pt 3.22304 36.286 22.7903
Pt 1.61152 36.286 25.0694
Pt 2.41728 37.6816 20.5113
Pt 0.80576 37.6816 22.7903
Pt 4.0288 37.6816 25.0694
Pt 0 39.0773 0
Pt 3.22304 39.0773 2.27903
Pt 1.61152 39.0773 4.55806
Pt 2.41728 40.4729 0
Pt 0.80576 40.4729 2.27903
Pt 4.0288 40.4729 4.55806
Pt 0 39.0773 6.8371
Pt 3.22304 39.0773 9.11613
Pt 1.61152 39.0773 11.3952
Pt 2.41728 40.4729 6.8371
Pt 0.80576 40.4729 9.11613
Pt 4.0288 40.4729 11.3952
Pt 0 39.0773 13.6742
Pt 3.22304 39.0773 15.9532
Pt 1.61152 39.0773 18.2323
Pt 2.41728 40.4729 13.6742
Pt 0.80576 40.4729 15.9532
Pt 4.0288 40.4729 18.2323
Pt 0 39.0773 20.5113
Pt 3.22304 39.0773 22.7903
Pt 1.61152 39.0773 25.0694
Pt 2.41728 40.4729 20.5113
Pt 0.80576 40.4729 22.7903
Pt 4.0288 40.4729 25.0694
Pt 0 41.8685 0
Pt 3.22304 41.8685 2.27903
Pt 1.61152 41.8685 4.55806
Pt 2.41728 43.2641 0
Pt 0.80576 43.2641 2.27903
Pt 4.0288 43.2641 4.55806
Pt 0 41.8685 6.8371
Pt 3.22304 41.8685 9.11613
Pt 1.61152 41.8685 11.3952
Pt 2.41728 43.2641 6.8371
Pt 0.80576 43.2641 9.11613
Pt 4.0288 43.2641 11.3952
Pt 0 41.8685 13.6742
Pt 3.22304 41.8685 15.9532
Pt 1.61152 41.8685 18.2323
Pt 2.41728 43.2641 13.6742
Pt 0.80576 43.2641 15.9532
Pt 4.0288 43.2641 18.2323
Pt 0 41.8685 20.5113
Pt 3.22304 41.8685 22.7903
Pt 1.61152 41.8685 25.0694
Pt 2.41728 43.2641 20.5113
Pt 0.80576 43.2641 22.7903
Pt 4.0288 43.2641 25.0694
Pt 4.83456 0 0
Pt 8.0576 0 2.27903
Pt 6.44608 0 4.55806
Pt 7.25184 1.39562 0
Pt 5.64032 1.39562 2.27903
Pt 8.86336 1.39562 4.55806
Pt 4.83456 0 6.8371
Pt 8.0576 0 9.11613
Pt 6.44608 0 11.3952
Pt 7.25184 1.39562 6.8371
Pt 5.64032 1.39562 9.11613
Pt 8.86336 1.39562 11.3952
Pt 4.83456 0 13.6742
Pt 8.0576 0 15.9532
Pt 6.44608 0 18.2323
Pt 7.25184 1.39562 13.6742
Pt 5.64032 1.39562 15.9532
Pt 8.86336 1.39562 18.2323
Pt 4.83456 0 20.5113
Pt 8.0576 0 22.7903
Pt 6.44608 0 25.0694
Pt 7.25184 1.39562 20.5113
Pt 5.64032 1.39562 22.7903
Pt 8.86336 1.39562 25.0694
Pt 4.83456 2.79123 0
Pt 8.0576 2.79123 2.27903
Pt 6.44608 2.79123 4.55806
Pt 7.25184 4.18685 0
Pt 5.64032 4.18685 2.27903
Pt 8.86336 4.18685 4.55806
Pt 4.83456 2.79123 6.8371
Pt 8.0576 2.79123 9.11613
Pt 6.44608 2.79123 11.3952
Pt 7.25184 4.18685 6.8371
Pt 5.64032 4.18685 9.11613
Pt 8.86336 4.18685 11.3952
Pt 4.83456 2.79123 13.6742
Pt 8.0576 2.79123 15.9532
Pt 6.44608 2.79123 18.2323
Pt 7.25184 4.18685 13.6742
Pt 5.64032 4.18685 15.9532
Pt 8.86336 4.18685 18.2323
Pt 4.83456 2.79123 20.5113
Pt 8.0576 2.79123 22.7903
Pt 6.44608 2.79123 25.0694
Pt 7.25184 4.18685 20.5113
Pt 5.64032 4.18685 22.7903
Pt 8.86336 4.18685 25.0694
Pt 4.83456 5.58247 0
Pt 8.0576 5.58247 2.27903
Pt 6.44608 5.58247 4.55806
Pt 7.25184 6.97808 0
Pt 5.64032 6.97808 2.27903
Pt 8.86336 6.97808 4.55806
Pt 4.83456 5.58247 6.8371
Pt 8.0576 5.58247 9.11613
Pt 6.44608 5.58247 11.3952
Pt 7.25184 6.97808 6.8371
Pt 5.64032 6.97808 9.11613
Pt 8.86336 6.97808 11.3952
Pt 4.83456 5.58247 13.6742
Pt 8.0576 5.58247 15.9532
Pt 6.44608 5.58247 18.2323
Pt 7.25184 6.97808 13.6742
Pt 5.64032 6.97808 15.9532
Pt 8.86336 6.97808 18.2323
Pt 4.83456 5.58247 20.5113
Pt 8.0576 5.58247 22.7903
Pt 6.44608 5.58247 25.0694
Pt 7.25184 6.97808 20.5113
Pt 5.64032 6.97808 22.7903
Pt 8.86336 6.97808 25.0694
Pt 4.83456 8.3737 0
Pt 8.0576 8.3737 2.27903
Pt 6.44608 8.3737 4.55806
Pt 7.25184 9.76932 0
Pt 5.64032 9.76932 2.27903
Pt 8.86336 9.76932 4.55806
Pt 4.83456 8.3737 6.8371
Pt 8.0576 8.3737 9.11613
Pt 6.44608 8.3737 11.3952
Pt 7.25184 9.76932 6.8371
Pt 5.64032 9.76932 9.11613
Pt 8.86336 9.76932 11.3952
Pt 4.83456 8.3737 13.6742
Pt 8.0576 8.3737 15.9532
Pt 6.44608 8.3737 18.2323
Pt 7.25184 9.76932 13.6742
Pt 5.64032 9.76932 15.9532
Pt 8.86336 9.76932 18.2323
Pt 4.83456 8.3737 20.5113
Pt 8.0576 8.3737 22.7903
Pt 6.44608 8.3737 25.0694
Pt 7.25184 9.76932 20.5113
Pt 5.64032 9.76932 22.7903
Pt 8.86336 9.76932 25.0694
Pt 4.83456 11.1649 0
Pt 8.0576 11.1649 2.27903
Pt 6.44608 11.1649 4.55806
Pt 7.25184 12.5605 0
Pt 5.64032 12.5605 2.27903
Pt 8.86336 12.5605 4.55806
Pt 4.83456 11.1649 6.8371
Pt 8.0576 11.1649 9.11613
Pt 6.44608 11.1649 11.3952
Pt 7.25184 12.5605 6.8371
Pt 5.64032 12.5605 9.11613
Pt 8.86336 12.5605 11.3952
Pt 4.83456 11.1649 13.6742
Pt 8.0576 11.1649 15.9532
Pt 6.44608 11.1649 18.2323
Pt 7.25184 12.5605 13.6742
Pt 5.64032 12.5605 15.9532
Pt 8.86336 12.5605 18.2323
Pt 4.83456 11.1649 20.5113
Pt 8.0576 11.1649 22.7903
Pt 6.44608 11.1649 25.0694
Pt 7.25184 12.5605 20.5113
Pt 5.64032 12.5605 22.7903
Pt 8.86336 12.5605 25.0694
Pt 4.83456 13.9562 0
Pt 8.0576 13.9562 2.27903
Pt 6.44608 13.9562 4.55806
Pt 7.25184 15.3518 0
Pt 5.64032 15.3518 2.27903
Pt 8.86336 15.3518 4.55806
Pt 4.83456 13.9562 6.8371
Pt 8.0576 13.9562 9.11613
Pt 6.44608 13.9562 11.3952
Pt 7.25184 15.3518 6.8371
Pt 5.64032 15.3518 9.11613
Pt 8.86336 15.3518 11.3952
Pt 4.83456 13.9562 13.6742
Pt 8.0576 13.9562 15.9532
Pt 6.44608 13.9562 18.2323
Pt 7.25184 15.3518 13.6742
Pt 5.64032 15.3518 15.9532
Pt 8.86336 15.3518 18.2323
Pt 4.83456 13.9562 20.5113
Pt 8.0576 13.9562 22.7903
Pt 6.44608 13.9562 25.0694
Pt 7.25184 15.3518 20.5113
Pt 5.64032 15.3518 22.7903
Pt 8.86336 15.3518 25.0694
Pt 4.83456 16.7474 0
Pt 8.0576 16.7474 2.27903
Pt 6.44608 16.7474 4.55806
Pt 7.25184 18.143 0
Pt 5.64032 18.143 2.27903
Pt 8.86336 18.143 4.55806
Pt 4.83456 16.7474 6.8371
Pt 8.0576 16.7474 9.11613
Pt 6.44608 16.7474 11.3952
Pt 7.25184 18.143 6.8371
Pt 5.64032 18.143 9.11613
Pt 8.86336 18.143 11.3952
Pt 4.83456 16.7474 13.6742
Pt 8.0576 16.7474 15.9532
Pt 6.44608 16.7474 18.2323
Pt 7.25184 18.143 13.6742
Pt 5.64032 18.143 15.9532
Pt 8.86336 18.143 18.2323
Pt 4.83456 16.7474 20.5113
Pt 8.0576 16.7474 22.7903
Pt 6.44608 16.7474 25.0694
Pt 7.25184 18.143 20.5113
Pt 5.64032 18.143 22.7903
Pt 8.86336 18.143 25.0694
Pt 4.83456 19.5386 0
Pt 8.0576 19.5386 2.27903
Pt 6.44608 19.5386 4.55806
Pt 7.25184 20.9342 0
Pt 5.64032 20.9342 2.27903
Pt 8.86336 20.9342 4.55806
Pt 4.83456 19.5386 6.8371
Pt 8.0576 19.5386 9.11613
Pt 6.44608 19.5386 11.3952
Pt 7.25184 20.9342 6.8371
Pt 5.64032 20.9342 9.11613
Pt 8.86336 20.9342 11.3952
Pt 4.83456 19.5386 13.6742
Pt 8.0576 19.5386 15.9532
Pt 6.44608 19.5386 18.2323
Pt 7.25184 20.9342 13.6742
Pt 5.64032 20.9342 15.9532
Pt 8.86336 20.9342 18.2323
Pt 4.83456 19.5386 20.5113
Pt 8.0576 19.5386 22.7903
Pt 6.44608 19.5386 25.0694
Pt 7.25184 20.9342 20.5113
Pt 5.64032 20.9342 22.7903
Pt 8.86336 20.9342 25.0694
Pt 4.83456 22.3299 0
Pt 8.0576 22.3299 2.27903
Pt 6.44608 22.3299 4.55806
Pt 7.25184 23.7255 0
Pt 5.64032 23.7255 2.27903
Pt 8.86336 23.7255 4.55806
Pt 4.83456 22.3299 6.8371
Pt 8.0576 22.3299 9.11613
Pt 6.44608 22.3299 11.3952
Pt 7.25184 23.7255 6.8371
Pt 5.64032 23.7255 9.11613
Pt 8.86336 23.7255 11.3952
Pt 4.83456 22.3299 13.6742
Pt 8.0576 22.3299 15.9532
Pt 6.44608 22.3299 18.2323
Pt 7.25184 23.7255 13.6742
Pt 5.64032 23.7255 15.9532
Pt 8.86336 23.7255 18.2323
Pt 4.83456 22.3299 20.5113
Pt 8.0576 22.3299 22.7903
Pt 6.44608 22.3299 25.0694
Pt 7.25184 23.7255 20.5113
Pt 5.64032 23.7255 22.7903
Pt 8.86336 23.7255 25.0694
Pt 4.83456 25.1211 0
Pt 8.0576 25.1211 2.27903
Pt 6.44608 25.1211 4.55806
Pt 7.25184 26.5167 0
Pt 5.64032 26.5167 2.27903
Pt 8.86336 26.5167 4.55806
Pt 4.83456 25.1211 6.8371
Pt 8.0576 25.1211 9.11613
Pt 6.44608 25.1211 11.3952
Pt 7.25184 26.5167 6.8371
Pt 5.64032 26.5167 9.11613
Pt 8.86336 26.5167 11.3952
Pt 4.83456 25.1211 13.6742
Pt 8.0576 25.1211 15.9532
Pt 6.44608 25.1211 18.2323
Pt 7.25184 26.5167 13.6742
Pt 5.64032 26.5167 15.9532
Pt 8.86336 26.5167 18.2323
Pt 4.83456 25.1211 20.5113
Pt 8.0576 25.1211 22.7903
Pt 6.44608 25.1211 25.0694
Pt 7.25184 26.5167 20.5113
Pt 5.64032 26.5167 22.7903
Pt 8.86336 26.5167 25.0694
Pt 4.83456 27.9123 0
Pt 8.0576 27.9123 2.27903
Pt 6.44608 27.9123 4.55806
Pt 7.25184 29.3079 0
Pt 5.64032 29.3079 2.27903
Pt 8.86336 29.3079 4.55806
Pt 4.83456 27.9123 6.8371
Pt 8.0576 27.9123 9.11613
Pt 6.44608 27.9123 11.3952
Pt 7.25184 29.3079 6.8371
Pt 5.64032 29.3079 9.11613
Pt 8.86336 29.3079 11.3952
Pt 4.83456 27.9123 13.6742
Pt 8.0576 27.9123 15.9532
Pt 6.44608 27.9123 18.2323
Pt 7.25184 29.3079 13.6742
Pt 5.64032 29.3079 15.9532
Pt 8.86336 29.3079 18.2323
Pt 4.83456 27.9123 20.5113
Pt 8.0576 27.9123 22.7903
Pt 6.44608 27.9123 25.0694
Pt 7.25184 29.3079 20.5113
Pt 5.64032 29.3079 22.7903
Pt 8.86336 29.3079 25.0694
Pt 4.83456 30.7036 0
Pt 8.0576 30.7036 2.27903
Pt 6.44608 30.7036 4.55806
Pt 7.25184 32.0992 0
Pt 5.64032 32.0992 2.27903
Pt 8.86336 32.0992 4.55806
Pt 4.83456 30.7036 6.8371
Pt 8.0576 30.7036 9.11613
Pt 6.44608 30.7036 11.3952
Pt 7.25184 32.0992 6.8371
Pt 5.64032 32.0992 9.11613
Pt 8.86336 32.0992 11.3952
Pt 4.83456 30.7036 13.6742
Pt 8.0576 30.7036 15.9532
Pt 6.44608 30.7036 18.2323
Pt 7.25184 32.0992 13.6742
Pt 5.64032 32.0992 15.9532
Pt 8.86336 32.0992 18.2323
Pt 4.83456 30.7036 20.5113
Pt 8.0576 30.7036 22.7903
Pt 6.44608 30.7036 25.0694
Pt 7.25184 32.0992 20.5113
Pt 5.64032 32.0992 22.7903
Pt 8.86336 32.0992 25.0694
Pt 4.83456 33.4948 0
Pt 8.0576 33.4948 2.27903
Pt 6.44608 33.4948 4.55806
Pt 7.25184 34.8904 0
Pt 5.64032 34.8904 2.27903
Pt 8.86336 34.8904 4.55806
Pt 4.83456 33.4948 6.8371
Pt 8.0576 33.4948 9.11613
Pt 6.44608 33.4948 11.3952
Pt 7.25184 34.8904 6.8371
Pt 5.64032 34.8904 9.11613
Pt 8.86336 34.8904 11.3952
Pt 4.83456 33.4948 13.6742
Pt 8.0576 33.4948 15.9532
Pt 6.44608 33.4948 18.2323
Pt 7.25184 34.8904 13.6742
Pt 5.64032 34.8904 15.9532
Pt 8.86336 34.8904 18.2323
Pt 4.83456 33.4948 20.5113
Pt 8.0576 33.4948 22.7903
Pt 6.44608 33.4948 25.0694
Pt 7.25184 34.8904 20.5113
Pt 5.64032 34.8904 22.7903
Pt 8.86336 34.8904 25.0694
Pt 4.83456 36.286 0
Pt 8.0576 36.286 2.27903
Pt 6.44608 36.286 4.55806
Pt 7.25184 37.6816 0
Pt 5.64032 37.6816 2.27903
Pt 8.86336 37.6816 4.55806
Pt 4.83456 36.286 6.8371
Pt 8.0576 36.286 9.11613
Pt 6.44608 36.286 11.3952
Pt 7.25184 37.6816 6.8371
Pt 5.64032 37.6816 9.11613
Pt 8.86336 37.6816 11.3952
Pt 4.83456 36.286 13.6742
Pt 8.0576 36.286 15.9532
Pt 6.44608 36.286 18.2323
Pt 7.25184 37.6816 13.6742
Pt 5.64032 37.6816 15.9532
Pt 8.86336 37.6816 18.2323
Pt 4.83456 36.286 20.5113
Pt 8.0576 36.286 22.7903
Pt 6.44608 36.286 25.0694
Pt 7.25184 37.6816 20.5113
Pt 5.64032 37.6816 22.7903
Pt 8.86336 37.6816 25.0694
Pt 4.83456 39.0773 0
Pt 8.0576 39.0773 2.27903
Pt 6.44608 39.0773 4.55806
Pt 7.25184 40.4729 0
Pt 5.64032 40.4729 2.27903
Pt 8.86336 40.4729 4.55806
Pt 4.83456 39.0773 6.8371
Pt 8.0576 39.0773 9.11613
Pt 6.44608 39.0773 11.3952
Pt 7.25184 40.4729 6.8371
Pt 5.64032 40.4729 9.11613
Pt 8.86336 40.4729 11.3952
Pt 4.83456 39.0773 13.6742
Pt 8.0576 39.0773 15.9532
Pt 6.44608 39.0773 18.2323
Pt 7.25184 40.4729 13.6742
Pt 5.64032 40.4729 15.9532
Pt 8.86336 40.4729 18.2323
Pt 4.83456 39.0773 20.5113
Pt 8.0576 39.0773 22.7903
Pt 6.44608 39.0773 25.0694
Pt 7.25184 40.4729 20.5113
Pt 5.64032 40.4729 22.7903
Pt 8.86336 40.4729 25.0694
Pt 4.83456 41.8685 0
Pt 8.0576 41.8685 2.27903
Pt 6.44608 41.8685 4.55806
Pt 7.25184 43.2641 0
Pt 5.64032 43.2641 2.27903
Pt 8.86336 43.2641 4.55806
Pt 4.83456 41.8685 6.8371
Pt 8.0576 41.8685 9.11613
Pt 6.44608 41.8685 11.3952
Pt 7.25184 43.2641 6.8371
Pt 5.64032 43.2641 9.11613
Pt 8.86336 43.2641 11.3952
Pt 4.83456 41.8685 13.6742
Pt 8.0576 41.8685 15.9532
Pt 6.44608 41.8685 18.2323
Pt 7.25184 43.2641 13.6742
Pt 5.64032 43.2641 15.9532
Pt 8.86336 43.2641 18.2323
Pt 4.83456 41.8685 20.5113
Pt 8.0576 41.8685 22.7903
Pt 6.44608 41.8685 25.0694
Pt 7.25184 43.2641 20.5113
Pt 5.64032 43.2641 22.7903
Pt 8.86336 43.2641 25.0694
Pt 9.66912 0 0
Pt 12.8922 0 2.27903
Pt 11.2806 0 4.55806
Pt 12.0864 1.39562 0
Pt 10.4749 1.39562 2.27903
Pt 13.6979 1.39562 4.55806
Pt 9.66912 0 6.8371
Pt 12.8922 0 9.11613
Pt 11.2806 0 11.3952
Pt 12.0864 1.39562 6.8371
Pt 10.4749 1.39562 9.11613
Pt 13.6979 1.39562 11.3952
Pt 9.66912 0 13.6742
Pt 12.8922 0 15.9532
Pt 11.2806 0 18.2323
Pt 12.0864 1.39562 13.6742
Pt 10.4749 1.39562 15.9532
Pt 13.6979 1.39562 18.2323
Pt 9.66912 0 20.5113
Pt 12.8922 0 22.7903
Pt 11.2806 0 25.0694
Pt 12.0864 1.39562 20.5113
Pt 10.4749 1.39562 22.7903
Pt 13.6979 1.39562 25.0694
Pt 9.66912 2.79123 0
Pt 12.8922 2.79123 2.27903
Pt 11.2806 2.79123 4.55806
Pt 12.0864 4.18685 0
Pt 10.4749 4.18685 2.27903
Pt 13.6979 4.18685 4.55806
Pt 9.66912 2.79123 6.8371
Pt 12.8922 2.79123 9.11613
Pt 11.2806 2.79123 11.3952
Pt 12.0864 4.18685 6.8371
Pt 10.4749 4.18685 9.11613
Pt 13.6979 4.18685 11.3952
Pt 9.66912 2.79123 13.6742
Pt 12.8922 2.79123 15.9532
Pt 11.2806 2.79123 18.2323
Pt 12.0864 4.18685 13.6742
Pt 10.4749 4.18685 15.9532
Pt 13.6979 4.18685 18.2323
Pt 9.66912 2.79123 20.5113
Pt 12.8922 2.79123 22.7903
Pt 11.2806 2.79123 25.0694
Pt 12.0864 4.18685 20.5113
Pt 10.4749 4.18685 22.7903
Pt 13.6979 4.18685 25.0694
Pt 9.66912 5.58247 0
Pt 12.8922 5.58247 2.27903
Pt 11.2806 5.58247 4.55806
Pt 12.0864 6.97808 0
Pt 10.4749 6.97808 2.27903
Pt 13.6979 6.97808 4.55806
Pt 9.66912 5.58247 6.8371
Pt 12.8922 5.58247 9.11613
Pt 11.2806 5.58247 11.3952
Pt 12.0864 6.97808 6.8371
Pt 10.4749 6.97808 9.11613
Pt 13.6979 6.97808 11.3952
Pt 9.66912 5.58247 13.6742
Pt 12.8922 5.58247 15.9532
Pt 11.2806 5.58247 18.2323
Pt 12.0864 6.97808 13.6742
Pt 10.4749 6.97808 15.9532
Pt 13.6979 6.97808 18.2323
Pt 9.66912 5.58247 20.5113
Pt 12.8922 5.58247 22.7903
Pt 11.2806 5.58247 25.0694
Pt 12.0864 6.97808 20.5113
Pt 10.4749 6.97808 22.7903
Pt 13.6979 6.97808 25.0694
Pt 9.66912 8.3737 0
Pt 12.8922 8.3737 2.27903
Pt 11.2806 8.3737 4.55806
Pt 12.0864 9.76932 0
Pt 10.4749 9.76932 2.27903
Pt 13.6979 9.76932 4.55806
Pt 9.66912 8.3737 6.8371
Pt 12.8922 8.3737 9.11613
Pt 11.2806 8.3737 11.3952
Pt 12.0864 9.76932 6.8371
Pt 10.4749 9.76932 9.11613
Pt 13.6979 9.76932 11.3952
Pt 9.66912 8.3737 13.6742
Pt 12.8922 8.3737 15.9532
Pt 11.2806 8.3737 18.2323
Pt 12.0864 9.76932 13.6742
Pt 10.4749 9.76932 15.9532
Pt 13.6979 9.76932 18.2323
Pt 9.66912 8.3737 20.5113
Pt 12.8922 8.3737 22.7903
Pt 11.2806 8.3737 25.0694
Pt 12.0864 9.76932 20.5113
Pt 10.4749 9.76932 22.7903
Pt 13.6979 9.76932 25.0694
Pt 9.66912 11.1649 0
Pt 12.8922 11.1649 2.27903
Pt 11.2806 11.1649 4.55806
Pt 12.0864 12.5605 0
Pt 10.4749 12.5605 2.27903
Pt 13.6979 12.5605 4.55806
Pt 9.66912 11.1649 6.8371
Pt 12.8922 11.1649 9.11613
Pt 11.2806 11.1649 11.3952
Pt 12.0864 12.5605 6.8371
Pt 10.4749 12.5605 9.11613
Pt 13.6979 12.5605 11.3952
Pt 9.66912 11.1649 13.6742
Pt 12.8922 11.1649 15.9532
Pt 11.2806 11.1649 18.2323
Pt 12.0864 12.5605 13.6742
Pt 10.4749 12.5605 15.9532
Pt 13.6979 12.5605 18.2323
Pt 9.66912 11.1649 20.5113
Pt 12.8922 11.1649 22.7903
Pt 11.2806 11.1649 25.0694
Pt 12.0864 12.5605 20.5113
Pt 10.4749 12.5605 22.7903
Pt 13.6979 12.5605 25.0694
Pt 9.66912 13.9562 0
Pt 12.8922 13.9562 2.27903
Pt 11.2806 13.9562 4.55806
Pt 12.0864 15.3518 0
Pt 10.4749 15.3518 2.27903
Pt 13.6979 15.3518 4.55806
Pt 9.66912 13.9562 6.8371
Pt 12.8922 13.9562 9.11613
Pt 11.2806 13.9562 11.3952
Pt 12.0864 15.3518 6.8371
Pt 10.4749 15.3518 9.11613
Pt 13.6979 15.3518 11.3952
Pt 9.66912 13.9562 13.6742
Pt 12.8922 13.9562 15.9532
Pt 11.2806 13.9562 18.2323
Pt 12.0864 15.3518 13.6742
Pt 10.4749 15.3518 15.9532
Pt 13.6979 15.3518 18.2323
Pt 9.66912 13.9562 20.5113
Pt 12.8922 13.9562 22.7903
Pt 11.2806 13.9562 25.0694
Pt 12.0864 15.3518 20.5113
Pt 10.4749 15.3518 22.7903
Pt 13.6979 15.3518 25.0694
Pt 9.66912 16.7474 0
Pt 12.8922 16.7474 2.27903
Pt 11.2806 16.7474 4.55806
Pt 12.0864 18.143 0
Pt 10.4749 18.143 2.27903
Pt 13.6979 18.143 4.55806
Pt 9.66912 16.7474 6.8371
Pt 12.8922 16.7474 9.11613
Pt 11.2806 16.7474 11.3952
Pt 12.0864 18.143 6.8371
Pt 10.4749 18.143 9.11613
Pt 13.6979 18.143 11.3952
Pt 9.66912 16.7474 13.6742
Pt 12.8922 16.7474 15.9532
Pt 11.2806 16.7474 18.2323
Pt 12.0864 18.143 13.6742
Pt 10.4749 18.143 15.9532
Pt 13.6979 18.143 18.2323
Pt 9.66912 16.7474 20.5113
Pt 12.8922 16.7474 22.7903
Pt 11.2806 16.7474 25.0694
Pt 12.0864 18.143 20.5113
Pt 10.4749 18.143 22.7903
Pt 13.6979 18.143 25.0694
Pt 9.66912 19.5386 0
Pt 12.8922 19.5386 2.27903
Pt 11.2806 19.5386 4.55806
Pt 12.0864 20.9342 0
Pt 10.4749 20.9342 2.27903
Pt 13.6979 20.9342 4.55806
Pt 9.66912 19.5386 6.8371
Pt 12.8922 19.5386 9.11613
Pt 11.2806 19.5386 11.3952
Pt 12.0864 20.9342 6.8371
Pt 10.4749 20.9342 9.11613
Pt 13.6979 20.9342 11.3952
Pt 9.66912 19.5386 13.6742
Pt 12.8922 19.5386 15.9532
Pt 11.2806 19.5386 18.2323
Pt 12.0864 20.9342 13.6742
Pt 10.4749 20.9342 15.9532
Pt 13.6979 20.9342 18.2323
Pt 9.66912 19.5386 20.5113
Pt 12.8922 19.5386 22.7903
Pt 11.2806 19.5386 25.0694
Pt 12.0864 20.9342 20.5113
Pt 10.4749 20.9342 22.7903
Pt 13.6979 20.9342 25.0694
Pt 9.66912 22.3299 0
Pt 12.8922 22.3299 2.27903
Pt 11.2806 22.3299 4.55806
Pt 12.0864 23.7255 0
Pt 10.4749 23.7255 2.27903
Pt 13.6979 23.7255 4.55806
Pt 9.66912 22.3299 6.8371
Pt 12.8922 22.3299 9.11613
Pt 11.2806 22.3299 11.3952
Pt 12.0864 23.7255 6.8371
Pt 10.4749 23.7255 9.11613
Pt 13.6979 23.7255 11.3952
Pt 9.66912 22.3299 13.6742
Pt 12.8922 22.3299 15.9532
Pt 11.2806 22.3299 18.2323
Pt 12.0864 23.7255 13.6742
Pt 10.4749 23.7255 15.9532
Pt 13.6979 23.7255 18.2323
Pt 9.66912 22.3299 20.5113
Pt 12.8922 22.3299 22.7903
Pt 11.2806 22.3299 25.0694
Pt 12.0864 23.7255 20.5113
Pt 10.4749 23.7255 22.7903
Pt 13.6979 23.7255 25.0694
Pt 9.66912 25.1211 0
Pt 12.8922 25.1211 2.27903
Pt 11.2806 25.1211 4.55806
Pt 12.0864 26.5167 0
Pt 10.4749 26.5167 2.27903
Pt 13.6979 26.5167 4.55806
Pt 9.66912 25.1211 6.8371
Pt 12.8922 25.1211 9.11613
Pt 11.2806 25.1211 11.3952
Pt 12.0864 26.5167 6.8371
Pt 10.4749 26.5167 9.11613
Pt 13.6979 26.5167 11.3952
Pt 9.66912 25.1211 13.6742
Pt 12.8922 25.1211 15.9532
Pt 11.2806 25.1211 18.2323
Pt 12.0864 26.5167 13.6742
Pt 10.4749 26.5167 15.9532
Pt 13.6979 26.5167 18.2323
Pt 9.66912 25.1211 20.5113
Pt 12.8922 25.1211 22.7903
Pt 11.2806 25.1211 25.0694
Pt 12.0864 26.5167 20.5113
Pt 10.4749 26.5167 22.7903
Pt 13.6979 26.5167 25.0694
Pt 9.66912 27.9123 0
Pt 12.8922 27.9123 2.27903
Pt 11.2806 27.9123 4.55806
Pt 12.0864 29.3079 0
Pt 10.4749 29.3079 2.27903
Pt 13.6979 29.3079 4.55806
Pt 9.66912 27.9123 6.8371
Pt 12.8922 27.9123 9.11613
Pt 11.2806 27.9123 11.3952
Pt 12.0864 29.3079 6.8371
Pt 10.4749 29.3079 9.11613
Pt 13.6979 29.3079 11.3952
Pt 9.66912 27.9123 13.6742
Pt 12.8922 27.9123 15.9532
Pt 11.2806 27.9123 18.2323
Pt 12.0864 29.3079 13.6742
Pt 10.4749 29.3079 15.9532
Pt 13.6979 29.3079 18.2323
Pt 9.66912 27.9123 20.5113
Pt 12.8922 27.9123 22.7903
Pt 11.2806 27.9123 25.0694
Pt 12.0864 29.3079 20.5113
Pt 10.4749 29.3079 22.7903
Pt 13.6979 29.3079 25.0694
Pt 9.66912 30.7036 0
Pt 12.8922 30.7036 2.27903
Pt 11.2806 30.7036 4.55806
Pt 12.0864 32.0992 0
Pt 10.4749 32.0992 2.27903
Pt 13.6979 32.0992 4.55806
Pt 9.66912 30.7036 6.8371
Pt 12.8922 30.7036 9.11613
Pt 11.2806 30.7036 11.3952
Pt 12.0864 32.0992 6.8371
Pt 10.4749 32.0992 9.11613
Pt 13.6979 32.0992 11.3952
Pt 9.66912 30.7036 13.6742
Pt 12.8922 30.7036 15.9532
Pt 11.2806 30.7036 18.2323
Pt 12.0864 32.0992 13.6742
Pt 10.4749 32.0992 15.9532
Pt 13.6979 32.0992 18.2323
Pt 9.66912 30.7036 20.5113
Pt 12.8922 30.7036 22.7903
Pt 11.2806 30.7036 25.0694
Pt 12.0864 32.0992 20.5113
Pt 10.4749 32.0992 22.7903
Pt 13.6979 32.0992 25.0694
Pt 9.66912 33.4948 0
Pt 12.8922 33.4948 2.27903
Pt 11.2806 33.4948 4.55806
Pt 12.0864 34.8904 0
Pt 10.4749 34.8904 2.27903
Pt 13.6979 34.8904 4.55806
Pt 9.66912 33.4948 6.8371
Pt 12.8922 33.4948 9.11613
Pt 11.2806 33.4948 11.3952
Pt 12.0864 34.8904 6.8371
Pt 10.4749 34.8904 9.11613
Pt 13.6979 34.8904 11.3952
Pt 9.66912 33.4948 13.6742
Pt 12.8922 33.4948 15.9532
Pt 11.2806 33.4948 18.2323
Pt 12.0864 34.8904 13.6742
Pt 10.4749 34.8904 15.9532
Pt 13.6979 34.8904 18.2323
Pt 9.66912 33.4948 20.5113
Pt 12.8922 33.4948 22.7903
Pt 11.2806 33.4948 25.0694
Pt 12.0864 34.8904 20.5113
Pt 10.4749 34.8904 22.7903
Pt 13.6979 34.8904 25.0694
Pt 9.66912 36.286 0
Pt 12.8922 36.286 2.27903
Pt 11.2806 36.286 4.55806
Pt 12.0864 37.6816 0
Pt 10.4749 37.6816 2.27903
Pt 13.6979 37.6816 4.55806
Pt 9.66912 36.286 6.8371
Pt 12.8922 36.286 9.11613
Pt 11.2806 36.286 11.3952
Pt 12.0864 37.6816 6.8371
Pt 10.4749 37.6816 9.11613
Pt 13.6979 37.6816 11.3952
Pt 9.66912 36.286 13.6742
Pt 12.8922 36.286 15.9532
Pt 11.2806 36.286 18.2323
Pt 12.0864 37.6816 13.6742
Pt 10.4749 37.6816 15.9532
Pt 13.6979 37.6816 18.2323
Pt 9.66912 36.286 20.5113
Pt 12.8922 36.286 22.7903
Pt 11.2806 36.286 25.0694
Pt 12.0864 37.6816 20.5113
Pt 10.4749 37.6816 22.7903
Pt 13.6979 37.6816 25.0694
Pt 9.66912 39.0773 0
Pt 12.8922 39.0773 2.27903
Pt 11.2806 39.0773 4.55806
Pt 12.0864 40.4729 0
Pt 10.4749 40.4729 2.27903
Pt 13.6979 40.4729 4.55806
Pt 9.66912 39.0773 6.8371
Pt 12.8922 39.0773 9.11613
Pt 11.2806 39.0773 11.3952
Pt 12.0864 40.4729 6.8371
Pt 10.4749 40.4729 9.11613
Pt 13.6979 40.4729 11.3952
Pt 9.66912 39.0773 13.6742
Pt 12.8922 39.0773 15.9532
Pt 11.2806 39.0773 18.2323
Pt 12.0864 40.4729 13.6742
Pt 10.4749 40.4729 15.9532
Pt 13.6979 40.4729 18.2323
Pt 9.66912 39.0773 20.5113
Pt 12.8922 39.0773 22.7903
Pt 11.2806 39.0773 25.0694
Pt 12.0864 40.4729 20.5113
Pt 10.4749 40.4729 22.7903
Pt 13.6979 40.4729 25.0694
Pt 9.66912 41.8685 0
Pt 12.8922 41.8685 2.27903
Pt 11.2806 41.8685 4.55806
Pt 12.0864 43.2641 0
Pt 10.4749 43.2641 2.27903
Pt 13.6979 43.2641 4.55806
Pt 9.66912 41.8685 6.8371
Pt 12.8922 41.8685 9.11613
Pt 11.2806 41.8685 11.3952
Pt 12.0864 43.2641 6.8371
Pt 10.4749 43.2641 9.11613
Pt 13.6979 43.2641 11.3952
Pt 9.66912 41.8685 13.6742
Pt 12.8922 41.8685 15.9532
Pt 11.2806 41.8685 18.2323
Pt 12.0864 43.2641 13.6742
Pt 10.4749 43.2641 15.9532
Pt 13.6979 43.2641 18.2323
Pt 9.66912 41.8685 20.5113
Pt 12.8922 41.8685 22.7903
Pt 11.2806 41.8685 25.0694
Pt 12.0864 43.2641 20.5113
Pt 10.4749 43.2641 22.7903
Pt 13.6979 43.2641 25.0694
Pt 14.5037 0 0
Pt 17.7267 0 2.27903
Pt 16.1152 0 4.55806
Pt 16.921 1.39562 0
Pt 15.3094 1.39562 2.27903
Pt 18.5325 1.39562 4.55806
Pt 14.5037 0 6.8371
Pt 17.7267 0 9.11613
Pt 16.1152 0 11.3952
Pt 16.921 1.39562 6.8371
Pt 15.3094 1.39562 9.11613
Pt 18.5325 1.39562 11.3952
Pt 14.5037 0 13.6742
Pt 17.7267 0 15.9532
Pt 16.1152 0 18.2323
Pt 16.921 1.39562 13.6742