ITEM: TIMESTEP
0
ITEM: NUMBER OF ATOMS
3072
ITEM: BOX BOUNDS pp pp pp
0.0000000000000000e+00 3.8676463280000000e+01
0.0000000000000000e+00 4.4659732959999999e+01
0.0000000000000000e+00 2.7348389439999998e+01
ITEM: ATOMS id type x y z c_peratom[1] c_peratom[2] c_peratom[3] c_peratom[4] c_peratom[5] c_peratom[6]
1 1 0 0 0 1765.06 1765.18 1764.49 2.67964e-09 0.116268 -1.33982e-09
2 1 3.22304 0 2.27903 1765.41 1765.34 1765.65 -2.20125e-09 -0.0617709 3.43236e-10
3 1 1.61152 0 4.55806 1765.41 1765.34 1765.65 -2.55784e-09 -0.0617709 -6.81981e-11
4 1 2.41728 1.39562 0 1765.06 1765.18 1764.49 7.61262e-10 0.116268 -4.87208e-10
5 1 0.80576 1.39562 2.27903 1765.41 1765.34 1765.65 -9.13515e-10 -0.061771 8.52614e-10
6 1 4.0288 1.39562 4.55806 1765.41 1765.34 1765.65 -2.46089e-10 -0.0617709 2.34527e-10
25 1 0 2.79123 0 1765.06 1765.18 1764.49 -3.83676e-09 0.116268 -3.34955e-10
26 1 3.22304 2.79123 2.27903 1765.41 1765.34 1765.65 2.65013e-09 -0.0617709 -4.68176e-10
27 1 1.61152 2.79123 4.55806 1765.41 1765.34 1765.65 1.60364e-09 -0.0617709 -2.81979e-10
28 1 2.41728 4.18685 0 1765.06 1765.18 1764.49 -1.03532e-09 0.116268 -3.53226e-09
29 1 0.80576 4.18685 2.27903 1765.41 1765.34 1765.65 3.45506e-09 -0.061771 4.32159e-09
30 1 4.0288 4.18685 4.55806 1765.41 1765.34 1765.65 -3.37305e-09 -0.0617709 -4.55184e-09
49 1 0 5.58247 0 1765.06 1765.18 1764.49 6.0901e-11 0.116268 1.21802e-10
50 1 3.22304 5.58247 2.27903 1765.41 1765.34 1765.65 -1.02638e-09 -0.0617709 8.75452e-11
51 1 1.61152 5.58247 4.55806 1765.41 1765.34 1765.65 2.05184e-11 -0.0617709 5.43886e-11
385 1 4.83456 0 0 1765.06 1765.18 1764.49 -2.92325e-09 0.116268 -3.89766e-09
387 1 6.44608 0 4.55806 1765.41 1765.34 1765.65 1.46162e-09 -0.0617709 1.20137e-09
389 1 5.64032 1.39562 2.27903 1765.41 1765.34 1765.65 1.88793e-09 -0.0617709 -3.04505e-09
409 1 4.83456 2.79123 0 1765.06 1765.18 1764.49 3.0146e-09 0.116268 3.35526e-09
411 1 6.44608 2.79123 4.55806 1765.41 1765.34 1765.65 -2.76909e-09 -0.0617709 -1.08605e-09
413 1 5.64032 4.18685 2.27903 1765.41 1765.34 1765.65 -5.88075e-10 -0.0617709 4.47563e-09
433 1 4.83456 5.58247 0 1765.06 1765.18 1764.49 1.01031e-10 0.116268 -9.9031e-11
435 1 6.44608 5.58247 4.55806 1765.41 1765.34 1765.65 -9.54552e-10 -0.0617709 -9.04547e-11
386 1 8.0576 0 2.27903 1765.41 1765.34 1765.65 -6.94652e-10 -0.0617709 -3.93477e-10
388 1 7.25184 1.39562 0 1765.06 1765.18 1764.49 -5.48109e-10 0.116268 -9.13515e-11
390 1 8.86336 1.39562 4.55806 1765.41 1765.34 1765.65 -2.31709e-10 -0.0617709 8.22948e-11
410 1 8.0576 2.79123 2.27903 1765.41 1765.34 1765.65 -1.61768e-10 -0.0617709 3.67547e-11
412 1 7.25184 4.18685 0 1765.06 1765.18 1764.49 -2.97326e-09 0.116268 -5.13005e-09
414 1 8.86336 4.18685 4.55806 1765.41 1765.34 1765.65 -3.55611e-09 -0.0617709 -4.90186e-09
434 1 8.0576 5.58247 2.27903 1765.41 1765.34 1765.65 -7.50147e-10 -0.0617709 -3.75952e-11
769 1 9.66912 0 0 1765.06 1765.18 1764.49 -1.94883e-09 0.116268 1.09622e-09
771 1 11.2806 0 4.55806 1765.41 1765.34 1765.65 -1.46162e-09 -0.0617709 -5.85411e-09
772 1 12.0864 1.39562 0 1765.06 1765.18 1764.49 1.82703e-10 0.116268 -2.74054e-10
773 1 10.4749 1.39562 2.27903 1765.41 1765.34 1765.65 2.67964e-09 -0.0617709 -2.67964e-09
793 1 9.66912 2.79123 0 1765.06 1765.18 1764.49 -5.6714e-10 0.116268 -1.92599e-09
795 1 11.2806 2.79123 4.55806 1765.41 1765.34 1765.65 3.74922e-10 -0.0617709 5.90817e-09
796 1 12.0864 4.18685 0 1765.06 1765.18 1764.49 1.47179e-09 0.116268 1.08171e-09
797 1 10.4749 4.18685 2.27903 1765.41 1765.34 1765.65 2.17911e-09 -0.0617709 5.36571e-09
817 1 9.66912 5.58247 0 1765.06 1765.18 1764.49 3.48768e-10 0.116268 -6.37728e-10
819 1 11.2806 5.58247 4.55806 1765.41 1765.34 1765.65 -2.88001e-11 -0.0617709 -5.69931e-10
770 1 12.8922 0 2.27903 1765.41 1765.34 1765.65 -3.23536e-11 -0.0617709 1.59484e-09
774 1 13.6979 1.39562 4.55806 1765.41 1765.34 1765.65 -2.92134e-10 -0.0617709 -8.02121e-10
794 1 12.8922 2.79123 2.27903 1765.41 1765.34 1765.65 1.21588e-09 -0.0617709 7.25102e-10
798 1 13.6979 4.18685 4.55806 1765.41 1765.34 1765.65 -1.82629e-09 -0.0617709 -4.22482e-09
818 1 12.8922 5.58247 2.27903 1765.41 1765.34 1765.65 -1.45915e-09 -0.0617709 -2.81501e-10
1153 1 14.5037 0 0 1765.06 1765.18 1764.49 -1.46162e-09 0.116268 1.09622e-09
1154 1 17.7267 0 2.27903 1765.41 1765.34 1765.65 9.74416e-10 -0.0617709 -2.13153e-10
1155 1 16.1152 0 4.55806 1765.41 1765.34 1765.65 -2.43604e-09 -0.0617709 -5.25937e-09
1156 1 16.921 1.39562 0 1765.06 1765.18 1764.49 3.04505e-10 0.116268 9.13515e-11
1157 1 15.3094 1.39562 2.27903 1765.41 1765.34 1765.65 1.76613e-09 -0.0617709 -3.89766e-09
1158 1 18.5325 1.39562 4.55806 1765.41 1765.34 1765.65 -6.0901e-10 -0.0617709 9.13515e-11
1177 1 14.5037 2.79123 0 1765.06 1765.18 1764.49 4.83402e-10 0.116268 -1.92599e-09
1178 1 17.7267 2.79123 2.27903 1765.41 1765.34 1765.65 1.5387e-09 -0.0617709 1.06696e-10
1179 1 16.1152 2.79123 4.55806 1765.41 1765.34 1765.65 2.38275e-09 -0.0617709 5.01166e-09
1180 1 16.921 4.18685 0 1765.06 1765.18 1764.49 -2.93621e-10 0.116268 -3.30314e-09
1181 1 15.3094 4.18685 2.27903 1765.41 1765.34 1765.65 1.60864e-09 -0.0617709 5.05133e-09
1182 1 18.5325 4.18685 4.55806 1765.41 1765.34 1765.65 -1.87459e-09 -0.0617709 -4.47931e-09
1201 1 14.5037 5.58247 0 1765.06 1765.18 1764.49 4.09045e-10 0.116268 -5.1583e-10
1202 1 17.7267 5.58247 2.27903 1765.41 1765.34 1765.65 -1.54048e-09 -0.0617709 -7.14473e-12
1203 1 16.1152 5.58247 4.55806 1765.41 1765.34 1765.65 1.11513e-12 -0.0617709 -3.28887e-10
52 1 2.41728 6.97808 0 1765.06 1765.18 1764.49 1.03532e-09 0.116268 4.38487e-09
53 1 0.80576 6.97808 2.27903 1765.41 1765.34 1765.65 -1.14189e-10 -0.061771 -2.93562e-09
54 1 4.0288 6.97808 4.55806 1765.41 1765.34 1765.65 5.43639e-09 -0.0617709 3.48365e-09
73 1 0 8.3737 0 1765.06 1765.18 1764.49 3.3191e-09 0.116268 -3.50181e-09
74 1 3.22304 8.3737 2.27903 1765.41 1765.34 1765.65 2.25854e-09 -0.0617709 4.62277e-09
75 1 1.61152 8.3737 4.55806 1765.41 1765.34 1765.65 -1.15758e-09 -0.0617709 -1.46406e-09
76 1 2.41728 9.76932 0 1765.06 1765.18 1764.49 -1.82703e-10 0.116268 -3.65406e-10
77 1 0.80576 9.76932 2.27903 1765.41 1765.34 1765.65 2.8131e-10 -0.061771 -8.89725e-11
78 1 4.0288 9.76932 4.55806 1765.41 1765.34 1765.65 -1.12583e-09 -0.0617709 -1.25772e-10
97 1 0 11.1649 0 1765.06 1765.18 1764.49 3.34955e-10 0.116268 -9.13515e-11
98 1 3.22304 11.1649 2.27903 1765.41 1765.34 1765.65 -8.17197e-10 -0.0617709 -2.81667e-10
99 1 1.61152 11.1649 4.55806 1765.41 1765.34 1765.65 -1.67861e-10 -0.0617709 7.41339e-11
437 1 5.64032 6.97808 2.27903 1765.41 1765.34 1765.65 3.1021e-09 -0.0617709 -2.94456e-09
457 1 4.83456 8.3737 0 1765.06 1765.18 1764.49 2.43604e-10 0.116268 -3.65406e-09
459 1 6.44608 8.3737 4.55806 1765.41 1765.34 1765.65 3.94276e-09 -0.0617709 -6.57481e-10
461 1 5.64032 9.76932 2.27903 1765.41 1765.34 1765.65 1.44521e-10 -0.0617709 2.7453e-10
481 1 4.83456 11.1649 0 1765.06 1765.18 1764.49 -1.82703e-10 0.116268 -1.21802e-10
483 1 6.44608 11.1649 4.55806 1765.41 1765.34 1765.65 -9.29264e-10 -0.0617709 2.2597e-10
436 1 7.25184 6.97808 0 1765.06 1765.18 1764.49 5.83488e-09 0.116268 3.80177e-09
438 1 8.86336 6.97808 4.55806 1765.41 1765.34 1765.65 5.13132e-09 -0.0617709 3.72726e-09
458 1 8.0576 8.3737 2.27903 1765.41 1765.34 1765.65 1.51253e-09 -0.0617709 4.79024e-09
460 1 7.25184 9.76932 0 1765.06 1765.18 1764.49 5.48109e-10 0.116268 -3.65406e-10
462 1 8.86336 9.76932 4.55806 1765.41 1765.34 1765.65 3.51015e-10 -0.0617709 -5.67304e-10
482 1 8.0576 11.1649 2.27903 1765.41 1765.34 1765.65 -4.21742e-10 -0.0617709 -3.80631e-11
820 1 12.0864 6.97808 0 1765.06 1765.18 1764.49 5.97125e-10 0.116268 3.31451e-09
821 1 10.4749 6.97808 2.27903 1765.41 1765.34 1765.65 -1.55607e-09 -0.0617709 -4.55368e-09
841 1 9.66912 8.3737 0 1765.06 1765.18 1764.49 -7.30812e-10 0.116268 -4.75028e-09
843 1 11.2806 8.3737 4.55806 1765.41 1765.34 1765.65 -1.41663e-09 -0.0617709 -2.21013e-09
844 1 12.0864 9.76932 0 1765.06 1765.18 1764.49 1.21802e-10 0.116268 -4.87208e-10
845 1 10.4749 9.76932 2.27903 1765.41 1765.34 1765.65 -6.95841e-11 -0.0617709 3.04505e-10
865 1 9.66912 11.1649 0 1765.06 1765.18 1764.49 -4.26307e-10 0.116268 -9.74416e-10
867 1 11.2806 11.1649 4.55806 1765.41 1765.34 1765.65 -1.58869e-11 -0.0617709 4.6999e-10
822 1 13.6979 6.97808 4.55806 1765.41 1765.34 1765.65 1.53836e-09 -0.0617709 3.48365e-09
842 1 12.8922 8.3737 2.27903 1765.41 1765.34 1765.65 1.34419e-09 -0.0617709 3.86341e-09
846 1 13.6979 9.76932 4.55806 1765.41 1765.34 1765.65 3.14258e-11 -0.0617709 -3.38524e-10
866 1 12.8922 11.1649 2.27903 1765.41 1765.34 1765.65 -6.95916e-10 -0.0617709 7.61262e-12
1204 1 16.921 6.97808 0 1765.06 1765.18 1764.49 7.80027e-10 0.116268 3.80172e-09
1205 1 15.3094 6.97808 2.27903 1765.41 1765.34 1765.65 -2.77365e-09 -0.0617709 -4.99616e-09
1206 1 18.5325 6.97808 4.55806 1765.41 1765.34 1765.65 9.29114e-10 -0.0617709 3.97061e-09
1225 1 14.5037 8.3737 0 1765.06 1765.18 1764.49 -1.52252e-09 0.116268 -5.11568e-09
1226 1 17.7267 8.3737 2.27903 1765.41 1765.34 1765.65 4.30262e-10 -0.0617709 4.89111e-09
1227 1 16.1152 8.3737 4.55806 1765.41 1765.34 1765.65 -9.29331e-10 -0.0617709 -3.18487e-09
1228 1 16.921 9.76932 0 1765.06 1765.18 1764.49 6.0901e-10 0.116268 1.21802e-10
1229 1 15.3094 9.76932 2.27903 1765.41 1765.34 1765.65 -4.50096e-10 -0.0617709 4.39153e-10
1230 1 18.5325 9.76932 4.55806 1765.41 1765.34 1765.65 1.25998e-10 -0.0617709 1.55464e-10
1249 1 14.5037 11.1649 0 1765.06 1765.18 1764.49 -1.82703e-10 0.116268 -4.87208e-10
1250 1 17.7267 11.1649 2.27903 1765.41 1765.34 1765.65 -6.22035e-10 -0.0617709 1.97928e-10
1251 1 16.1152 11.1649 4.55806 1765.41 1765.34 1765.65 -1.98497e-10 -0.0617709 6.44694e-11
100 1 2.41728 12.5605 0 1765.06 1765.18 1764.49 -6.0901e-11 0.116268 -2.43604e-10
101 1 0.80576 12.5605 2.27903 1765.41 1765.34 1765.65 3.75873e-11 -0.061771 8.18357e-11
102 1 4.0288 12.5605 4.55806 1765.41 1765.34 1765.65 5.64309e-10 -0.0617709 -6.57615e-10
121 1 0 13.9562 0 1765.06 1765.18 1764.49 6.69911e-10 0.116268 -3.65406e-10
122 1 3.22304 13.9562 2.27903 1765.41 1765.34 1765.65 -9.38999e-10 -0.0617709 -6.4517e-10
123 1 1.61152 13.9562 4.55806 1765.41 1765.34 1765.65 -2.89804e-10 -0.0617709 6.97982e-10
124 1 2.41728 15.3518 0 1765.06 1765.18 1764.49 3.65406e-10 0.116268 5.60289e-09
125 1 0.80576 15.3518 2.27903 1765.41 1765.34 1765.65 -5.97115e-11 -0.0617709 -3.14211e-09
126 1 4.0288 15.3518 4.55806 1765.41 1765.34 1765.65 1.18166e-09 -0.0617709 -3.39087e-09
485 1 5.64032 12.5605 2.27903 1765.41 1765.34 1765.65 -2.03995e-10 -0.0617709 1.91267e-10
505 1 4.83456 13.9562 0 1765.06 1765.18 1764.49 4.78219e-11 0.116268 -8.80759e-10
507 1 6.44608 13.9562 4.55806 1765.41 1765.34 1765.65 -7.79859e-12 -0.0617709 9.05016e-10
509 1 5.64032 15.3518 2.27903 1765.41 1765.34 1765.65 3.10075e-09 -0.0617709 2.26347e-09
484 1 7.25184 12.5605 0 1765.06 1765.18 1764.49 -1.82703e-10 0.116268 1.21802e-10
486 1 8.86336 12.5605 4.55806 1765.41 1765.34 1765.65 -5.31909e-10 -0.0617709 3.16801e-10
506 1 8.0576 13.9562 2.27903 1765.41 1765.34 1765.65 -3.58661e-10 -0.0617709 -2.60732e-10
508 1 7.25184 15.3518 0 1765.06 1765.18 1764.49 3.76447e-09 0.116268 4.2145e-09
510 1 8.86336 15.3518 4.55806 1765.41 1765.34 1765.65 1.55577e-09 -0.0617709 -3.49251e-09
868 1 12.0864 12.5605 0 1765.06 1765.18 1764.49 7.30812e-10 0.116268 3.65406e-10
869 1 10.4749 12.5605 2.27903 1765.41 1765.34 1765.65 -3.86341e-10 -0.0617709 -1.58438e-10
889 1 9.66912 13.9562 0 1765.06 1765.18 1764.49 6.56832e-10 0.116268 -5.15353e-10
891 1 11.2806 13.9562 4.55806 1765.41 1765.34 1765.65 -1.29593e-10 -0.0617709 5.24025e-11
892 1 12.0864 15.3518 0 1765.06 1765.18 1764.49 -3.3003e-09 0.116268 -9.01268e-10
893 1 10.4749 15.3518 2.27903 1765.41 1765.34 1765.65 -5.30881e-09 -0.0617709 -2.39728e-09
870 1 13.6979 12.5605 4.55806 1765.41 1765.34 1765.65 -1.05603e-10 -0.0617709 -4.14011e-10
890 1 12.8922 13.9562 2.27903 1765.41 1765.34 1765.65 -2.37632e-10 -0.0617709 -3.82534e-10
894 1 13.6979 15.3518 4.55806 1765.41 1765.34 1765.65 2.64921e-09 -0.0617709 -2.76361e-09
1252 1 16.921 12.5605 0 1765.06 1765.18 1764.49 -3.04505e-10 0.116268 -4.87208e-10
1253 1 15.3094 12.5605 2.27903 1765.41 1765.34 1765.65 -6.3042e-10 -0.0617709 2.21718e-10
1254 1 18.5325 12.5605 4.55806 1765.41 1765.34 1765.65 -8.153e-11 -0.0617709 4.06116e-10
1273 1 14.5037 13.9562 0 1765.06 1765.18 1764.49 2.91426e-10 0.116268 -6.37155e-10
1274 1 17.7267 13.9562 2.27903 1765.41 1765.34 1765.65 -1.08053e-09 -0.0617709 -8.75452e-11
1275 1 16.1152 13.9562 4.55806 1765.41 1765.34 1765.65 1.75469e-10 -0.0617709 9.0686e-10
1276 1 16.921 15.3518 0 1765.06 1765.18 1764.49 1.51105e-09 0.116268 4.94523e-09
1277 1 15.3094 15.3518 2.27903 1765.41 1765.34 1765.65 -1.12951e-09 -0.0617709 -2.68949e-09
1278 1 18.5325 15.3518 4.55806 1765.41 1765.34 1765.65 -1.6752e-09 -0.0617709 -3.12723e-09
145 1 0 16.7474 0 1765.06 1765.18 1764.49 2.19244e-09 0.116268 4.87208e-10
146 1 3.22304 16.7474 2.27903 1765.41 1765.34 1765.65 -4.72765e-09 -0.0617709 -1.69952e-09
147 1 1.61152 16.7474 4.55806 1765.41 1765.34 1765.65 2.99513e-10 -0.0617709 3.88276e-09
148 1 2.41728 18.143 0 1765.06 1765.18 1764.49 7.30812e-10 0.116268 1.33982e-09
149 1 0.80576 18.143 2.27903 1765.41 1765.34 1765.65 -3.53583e-09 -0.061771 2.42843e-09
150 1 4.0288 18.143 4.55806 1765.41 1765.34 1765.65 -4.64038e-09 -0.0617709 -3.16862e-09
169 1 0 19.5386 0 1765.06 1765.18 1764.49 -5.78559e-10 0.116268 3.92811e-09
170 1 3.22304 19.5386 2.27903 1765.41 1765.34 1765.65 -1.21088e-09 -0.0617709 -4.79976e-09
171 1 1.61152 19.5386 4.55806 1765.41 1765.34 1765.65 2.05504e-09 -0.0617709 1.74885e-09
172 1 2.41728 20.9342 0 1765.06 1765.18 1764.49 -1.52252e-10 0.116268 1.21802e-10
173 1 0.80576 20.9342 2.27903 1765.41 1765.34 1765.65 -2.55784e-09 -0.061771 2.22289e-09
174 1 4.0288 20.9342 4.55806 1765.41 1765.34 1765.65 -4.76467e-09 -0.0617709 -2.66776e-09
529 1 4.83456 16.7474 0 1765.06 1765.18 1764.49 -1.96358e-09 0.116268 3.69688e-09
531 1 6.44608 16.7474 4.55806 1765.41 1765.34 1765.65 -3.2651e-10 -0.0617709 3.74187e-09
533 1 5.64032 18.143 2.27903 1765.41 1765.34 1765.65 -1.3893e-09 -0.0617709 2.32399e-09
553 1 4.83456 19.5386 0 1765.06 1765.18 1764.49 9.74416e-10 0.116268 4.14127e-09
555 1 6.44608 19.5386 4.55806 1765.41 1765.34 1765.65 -2.05921e-09 -0.0617709 1.6272e-09
557 1 5.64032 20.9342 2.27903 1765.41 1765.34 1765.65 -1.94883e-09 -0.0617709 2.07063e-09
530 1 8.0576 16.7474 2.27903 1765.41 1765.34 1765.65 -1.43342e-09 -0.0617709 -2.04225e-09
532 1 7.25184 18.143 0 1765.06 1765.18 1764.49 -1.92599e-09 0.116268 4.36536e-11
534 1 8.86336 18.143 4.55806 1765.41 1765.34 1765.65 -3.68302e-09 -0.0617709 -3.01764e-09
554 1 8.0576 19.5386 2.27903 1765.41 1765.34 1765.65 -2.08396e-09 -0.0617709 -4.60766e-09
556 1 7.25184 20.9342 0 1765.06 1765.18 1764.49 -2.74054e-09 0.116268 3.04505e-10
558 1 8.86336 20.9342 4.55806 1765.41 1765.34 1765.65 -3.75968e-09 -0.0617709 -2.85048e-09
913 1 9.66912 16.7474 0 1765.06 1765.18 1764.49 -2.08871e-10 0.116268 -1.42142e-09
915 1 11.2806 16.7474 4.55806 1765.41 1765.34 1765.65 5.58089e-09 -0.0617709 5.93431e-09
916 1 12.0864 18.143 0 1765.06 1765.18 1764.49 2.61684e-11 0.116268 -3.24625e-09
917 1 10.4749 18.143 2.27903 1765.41 1765.34 1765.65 3.36288e-09 -0.0617709 3.75421e-09
937 1 9.66912 19.5386 0 1765.06 1765.18 1764.49 2.07063e-09 0.116268 3.41046e-09
939 1 11.2806 19.5386 4.55806 1765.41 1765.34 1765.65 2.85473e-10 -0.0617709 3.24107e-09
940 1 12.0864 20.9342 0 1765.06 1765.18 1764.49 -1.97928e-10 0.116268 -3.47136e-09
941 1 10.4749 20.9342 2.27903 1765.41 1765.34 1765.65 3.89766e-09 -0.0617709 4.26307e-09
914 1 12.8922 16.7474 2.27903 1765.41 1765.34 1765.65 -5.6665e-09 -0.0617709 -6.12274e-09
918 1 13.6979 18.143 4.55806 1765.41 1765.34 1765.65 -2.49489e-09 -0.0617709 -3.0634e-09
938 1 12.8922 19.5386 2.27903 1765.41 1765.34 1765.65 -1.46543e-10 -0.0617709 -4.57364e-09
942 1 13.6979 20.9342 4.55806 1765.41 1765.34 1765.65 -2.72437e-09 -0.0617709 -2.72826e-09
1297 1 14.5037 16.7474 0 1765.06 1765.18 1764.49 -3.86293e-09 0.116268 -1.42142e-09
1298 1 17.7267 16.7474 2.27903 1765.41 1765.34 1765.65 -1.9833e-09 -0.0617709 -2.62842e-09
1299 1 16.1152 16.7474 4.55806 1765.41 1765.34 1765.65 2.17031e-09 -0.0617709 6.17803e-09
1300 1 16.921 18.143 0 1765.06 1765.18 1764.49 -1.43641e-09 0.116268 -3.97736e-09
1301 1 15.3094 18.143 2.27903 1765.41 1765.34 1765.65 5.99494e-10 -0.0617709 3.93596e-09
1302 1 18.5325 18.143 4.55806 1765.41 1765.34 1765.65 -1.94669e-09 -0.0617709 -2.56091e-09
1321 1 14.5037 19.5386 0 1765.06 1765.18 1764.49 2.55784e-09 0.116268 3.77586e-09
1322 1 17.7267 19.5386 2.27903 1765.41 1765.34 1765.65 -1.94883e-09 -0.0617709 -4.84163e-09
1323 1 16.1152 19.5386 4.55806 1765.41 1765.34 1765.65 1.71665e-09 -0.0617709 3.05837e-09
1324 1 16.921 20.9342 0 1765.06 1765.18 1764.49 -9.74416e-10 0.116268 -4.56757e-09
1325 1 15.3094 20.9342 2.27903 1765.41 1765.34 1765.65 2.43604e-09 -0.0617709 3.77586e-09
1326 1 18.5325 20.9342 4.55806 1765.41 1765.34 1765.65 -1.21802e-09 -0.0617709 -2.80145e-09
7 1 0 0 6.8371 1765.06 1765.18 1764.49 2.92325e-09 0.116268 -1.82703e-09
8 1 3.22304 0 9.11613 1765.41 1765.34 1765.65 -2.34469e-09 -0.0617709 1.71284e-11
9 1 1.61152 0 11.3952 1765.41 1765.34 1765.65 -3.04505e-09 -0.0617709 -1.21802e-09
10 1 2.41728 1.39562 6.8371 1765.06 1765.18 1764.49 7.61262e-11 0.116268 7.30812e-10
11 1 0.80576 1.39562 9.11613 1765.41 1765.34 1765.65 1.82703e-10 -0.061771 6.69911e-10
12 1 4.0288 1.39562 11.3952 1765.41 1765.34 1765.65 1.52252e-10 -0.0617709 -1.27892e-09
31 1 0 2.79123 6.8371 1765.06 1765.18 1764.49 -5.90295e-09 0.116268 4.47484e-10
32 1 3.22304 2.79123 9.11613 1765.41 1765.34 1765.65 2.50027e-09 -0.0617709 -5.73801e-10
33 1 1.61152 2.79123 11.3952 1765.41 1765.34 1765.65 1.88793e-09 -0.0617709 9.74416e-10
34 1 2.41728 4.18685 6.8371 1765.06 1765.18 1764.49 -2.94697e-10 0.116268 1.8354e-10
35 1 0.80576 4.18685 9.11613 1765.41 1765.34 1765.65 1.44533e-09 -0.061771 -2.52929e-09
36 1 4.0288 4.18685 11.3952 1765.41 1765.34 1765.65 -3.10595e-09 -0.0617709 -3.53226e-09
55 1 0 5.58247 6.8371 1765.06 1765.18 1764.49 2.22988e-10 0.116268 -2.66913e-10
56 1 3.22304 5.58247 9.11613 1765.41 1765.34 1765.65 -1.34648e-10 -0.0617709 -5.34787e-10
57 1 1.61152 5.58247 11.3952 1765.41 1765.34 1765.65 -6.0901e-10 -0.0617709 4.87208e-10
391 1 4.83456 0 6.8371 1765.06 1765.18 1764.49 -1.94883e-09 0.116268 2.43604e-09
393 1 6.44608 0 11.3952 1765.41 1765.34 1765.65 2.43604e-09 -0.0617709 1.70523e-09
395 1 5.64032 1.39562 9.11613 1765.41 1765.34 1765.65 3.16685e-09 -0.0617709 -4.38487e-09
415 1 4.83456 2.79123 6.8371 1765.06 1765.18 1764.49 1.2675e-09 0.116268 -5.2765e-09
417 1 6.44608 2.79123 11.3952 1765.41 1765.34 1765.65 -3.50181e-09 -0.0617709 -2.66947e-09
419 1 5.64032 4.18685 9.11613 1765.41 1765.34 1765.65 -2.31709e-09 -0.0617709 -1.8934e-09
439 1 4.83456 5.58247 6.8371 1765.06 1765.18 1764.49 -2.54175e-10 0.116268 2.88967e-10
441 1 6.44608 5.58247 11.3952 1765.41 1765.34 1765.65 -1.04876e-09 -0.0617709 1.15061e-09
392 1 8.0576 0 9.11613 1765.41 1765.34 1765.65 7.36521e-10 -0.0617709 3.40379e-09
394 1 7.25184 1.39562 6.8371 1765.06 1765.18 1764.49 2.81667e-10 0.116268 -4.18694e-11
396 1 8.86336 1.39562 11.3952 1765.41 1765.34 1765.65 1.21802e-10 -0.0617709 -3.95856e-10
416 1 8.0576 2.79123 9.11613 1765.41 1765.34 1765.65 -1.67716e-09 -0.0617709 -5.53652e-09
418 1 7.25184 4.18685 6.8371 1765.06 1765.18 1764.49 -3.44923e-09 0.116268 -4.97637e-09
420 1 8.86336 4.18685 11.3952 1765.41 1765.34 1765.65 -3.26113e-09 -0.0617709 -3.70278e-09
440 1 8.0576 5.58247 9.11613 1765.41 1765.34 1765.65 -1.67959e-10 -0.0617709 -2.70083e-10
775 1 9.66912 0 6.8371 1765.06 1765.18 1764.49 -0 0.116268 -1.46162e-09
777 1 11.2806 0 11.3952 1765.41 1765.34 1765.65 7.30812e-10 -0.0617709 -4.50667e-09
778 1 12.0864 1.39562 6.8371 1765.06 1765.18 1764.49 -4.98627e-10 0.116268 1.10954e-09
779 1 10.4749 1.39562 9.11613 1765.41 1765.34 1765.65 3.77586e-09 -0.0617709 -4.62847e-09
799 1 9.66912 2.79123 6.8371 1765.06 1765.18 1764.49 -4.94821e-11 0.116268 1.81751e-10
801 1 11.2806 2.79123 11.3952 1765.41 1765.34 1765.65 1.40834e-10 -0.0617709 6.10027e-09
802 1 12.0864 4.18685 6.8371 1765.06 1765.18 1764.49 1.40667e-09 0.116268 2.60792e-10
803 1 10.4749 4.18685 9.11613 1765.41 1765.34 1765.65 1.02366e-09 -0.0617709 3.21598e-09
823 1 9.66912 5.58247 6.8371 1765.06 1765.18 1764.49 1.76265e-10 0.116268 -3.71532e-10
825 1 11.2806 5.58247 11.3952 1765.41 1765.34 1765.65 -3.17946e-10 -0.0617709 -3.11013e-10
776 1 12.8922 0 9.11613 1765.41 1765.34 1765.65 -1.22944e-09 -0.0617709 -2.20766e-10
780 1 13.6979 1.39562 11.3952 1765.41 1765.34 1765.65 -1.21802e-10 -0.0617709 -1.46162e-09
800 1 12.8922 2.79123 9.11613 1765.41 1765.34 1765.65 1.18614e-09 -0.0617709 -6.73836e-10
804 1 13.6979 4.18685 11.3952 1765.41 1765.34 1765.65 -2.04232e-09 -0.0617709 -3.33737e-09
824 1 12.8922 5.58247 9.11613 1765.41 1765.34 1765.65 -5.33124e-10 -0.0617709 -5.03897e-10
1159 1 14.5037 0 6.8371 1765.06 1765.18 1764.49 -1.46162e-09 0.116268 -4.87208e-10
1160 1 17.7267 0 9.11613 1765.41 1765.34 1765.65 2.31424e-09 -0.0617709 3.50181e-09
1161 1 16.1152 0 11.3952 1765.41 1765.34 1765.65 -4.87208e-10 -0.0617709 -4.38487e-09
1162 1 16.921 1.39562 6.8371 1765.06 1765.18 1764.49 4.2821e-10 0.116268 -1.00867e-10
1163 1 15.3094 1.39562 9.11613 1765.41 1765.34 1765.65 2.80145e-09 -0.0617709 -4.62847e-09
1164 1 18.5325 1.39562 11.3952 1765.41 1765.34 1765.65 -2.74054e-10 -0.0617709 6.0901e-11
1183 1 14.5037 2.79123 6.8371 1765.06 1765.18 1764.49 6.35654e-10 0.116268 4.18694e-10
1184 1 17.7267 2.79123 9.11613 1765.41 1765.34 1765.65 -1.83821e-09 -0.0617709 -5.45528e-09
1185 1 16.1152 2.79123 11.3952 1765.41 1765.34 1765.65 1.66716e-09 -0.0617709 5.12252e-09
1186 1 16.921 4.18685 6.8371 1765.06 1765.18 1764.49 6.61406e-10 0.116268 -3.93775e-10
1187 1 15.3094 4.18685 9.11613 1765.41 1765.34 1765.65 1.36099e-09 -0.0617709 3.52405e-09
1188 1 18.5325 4.18685 11.3952 1765.41 1765.34 1765.65 -1.64694e-09 -0.0617709 -3.55045e-09
1207 1 14.5037 5.58247 6.8371 1765.06 1765.18 1764.49 -7.1071e-12 0.116268 -8.58792e-10
1208 1 17.7267 5.58247 9.11613 1765.41 1765.34 1765.65 -7.07849e-10 -0.0617709 -1.61603e-10
1209 1 16.1152 5.58247 11.3952 1765.41 1765.34 1765.65 -6.53124e-10 -0.0617709 1.76014e-10
58 1 2.41728 6.97808 6.8371 1765.06 1765.18 1764.49 1.92524e-10 0.116268 -3.59053e-10
59 1 0.80576 6.97808 9.11613 1765.41 1765.34 1765.65 9.05426e-10 -0.061771 2.57021e-09
60 1 4.0288 6.97808 11.3952 1765.41 1765.34 1765.65 4.01947e-09 -0.0617709 1.94883e-09
79 1 0 8.3737 6.8371 1765.06 1765.18 1764.49 3.51162e-09 0.116268 7.52286e-10
80 1 3.22304 8.3737 9.11613 1765.41 1765.34 1765.65 2.16056e-09 -0.0617709 1.36076e-09
81 1 1.61152 8.3737 11.3952 1765.41 1765.34 1765.65 2.43604e-10 -0.0617709 1.46162e-09
82 1 2.41728 9.76932 6.8371 1765.06 1765.18 1764.49 6.18818e-10 0.116268 1.12186e-10
83 1 0.80576 9.76932 9.11613 1765.41 1765.34 1765.65 7.66972e-10 -0.061771 -6.78475e-10
84 1 4.0288 9.76932 11.3952 1765.41 1765.34 1765.65 -1.15712e-09 -0.0617709 -3.65406e-10
103 1 0 11.1649 6.8371 1765.06 1765.18 1764.49 8.62449e-10 0.116268 5.70505e-10
104 1 3.22304 11.1649 9.11613 1765.41 1765.34 1765.65 -4.75789e-11 -0.0617709 3.42568e-11
105 1 1.61152 11.1649 11.3952 1765.41 1765.34 1765.65 -1.03532e-09 -0.0617709 4.87208e-10
443 1 5.64032 6.97808 9.11613 1765.41 1765.34 1765.65 4.28691e-09 -0.0617709 -4.18349e-11
463 1 4.83456 8.3737 6.8371 1765.06 1765.18 1764.49 2.23271e-09 0.116268 4.78232e-10
465 1 6.44608 8.3737 11.3952 1765.41 1765.34 1765.65 4.14127e-09 -0.0617709 -0
467 1 5.64032 9.76932 9.11613 1765.41 1765.34 1765.65 -9.51578e-13 -0.0617709 3.53987e-10
487 1 4.83456 11.1649 6.8371 1765.06 1765.18 1764.49 -5.10737e-11 0.116268 -5.86614e-10
489 1 6.44608 11.1649 11.3952 1765.41 1765.34 1765.65 -7.30812e-10 -0.0617709 4.87208e-10
442 1 7.25184 6.97808 6.8371 1765.06 1765.18 1764.49 4.56577e-09 0.116268 -3.63581e-10
444 1 8.86336 6.97808 11.3952 1765.41 1765.34 1765.65 3.958e-09 -0.0617709 1.70523e-09
464 1 8.0576 8.3737 9.11613 1765.41 1765.34 1765.65 3.63979e-10 -0.0617709 1.16283e-09
466 1 7.25184 9.76932 6.8371 1765.06 1765.18 1764.49 3.44763e-10 0.116268 -2.53219e-10
468 1 8.86336 9.76932 11.3952 1765.41 1765.34 1765.65 6.0901e-11 -0.0617709 1.21802e-10
488 1 8.0576 11.1649 9.11613 1765.41 1765.34 1765.65 -4.92442e-10 -0.0617709 1.99831e-10
826 1 12.0864 6.97808 6.8371 1765.06 1765.18 1764.49 -1.03738e-09 0.116268 -1.09429e-09
827 1 10.4749 6.97808 9.11613 1765.41 1765.34 1765.65 -1.37851e-09 -0.0617709 -1.31695e-09
847 1 9.66912 8.3737 6.8371 1765.06 1765.18 1764.49 1.62072e-10 0.116268 -2.22159e-10
849 1 11.2806 8.3737 11.3952 1765.41 1765.34 1765.65 -7.30812e-10 -0.0617709 -4.87208e-10
850 1 12.0864 9.76932 6.8371 1765.06 1765.18 1764.49 1.16441e-10 0.116268 1.88223e-10
851 1 10.4749 9.76932 9.11613 1765.41 1765.34 1765.65 -4.43673e-10 -0.0617709 7.51747e-11
871 1 9.66912 11.1649 6.8371 1765.06 1765.18 1764.49 -5.38282e-10 0.116268 -9.93761e-11
873 1 11.2806 11.1649 11.3952 1765.41 1765.34 1765.65 -9.13515e-10 -0.0617709 -0
828 1 13.6979 6.97808 11.3952 1765.41 1765.34 1765.65 -1.22167e-10 -0.0617709 7.30812e-10
848 1 12.8922 8.3737 9.11613 1765.41 1765.34 1765.65 -1.2656e-10 -0.0617709 -5.57625e-10
852 1 13.6979 9.76932 11.3952 1765.41 1765.34 1765.65 -0 -0.0617709 -2.43604e-10
872 1 12.8922 11.1649 9.11613 1765.41 1765.34 1765.65 -5.01482e-10 -0.0617709 -5.0053e-10
1210 1 16.921 6.97808 6.8371 1765.06 1765.18 1764.49 5.90886e-11 0.116268 -8.50759e-10
1211 1 15.3094 6.97808 9.11613 1765.41 1765.34 1765.65 -9.50334e-10 -0.0617709 -1.80606e-09
1212 1 18.5325 6.97808 11.3952 1765.41 1765.34 1765.65 -2.44169e-10 -0.0617709 1.24847e-09
1231 1 14.5037 8.3737 6.8371 1765.06 1765.18 1764.49 -7.20977e-10 0.116268 -9.00584e-12
1232 1 17.7267 8.3737 9.11613 1765.41 1765.34 1765.65 -3.85389e-10 -0.0617709 7.49843e-10
1233 1 16.1152 8.3737 11.3952 1765.41 1765.34 1765.65 -1.15712e-09 -0.0617709 -9.74416e-10
1234 1 16.921 9.76932 6.8371 1765.06 1765.18 1764.49 2.53412e-10 0.116268 -2.48408e-11
1235 1 15.3094 9.76932 9.11613 1765.41 1765.34 1765.65 -7.37235e-10 -0.0617709 -2.69297e-10
1236 1 18.5325 9.76932 11.3952 1765.41 1765.34 1765.65 -2.43604e-10 -0.0617709 6.0901e-11
1255 1 14.5037 11.1649 6.8371 1765.06 1765.18 1764.49 2.53446e-10 0.116268 -5.86614e-10
1256 1 17.7267 11.1649 9.11613 1765.41 1765.34 1765.65 -7.51747e-11 -0.0617709 2.01735e-10
1257 1 16.1152 11.1649 11.3952 1765.41 1765.34 1765.65 -3.65406e-10 -0.0617709 -0
106 1 2.41728 12.5605 6.8371 1765.06 1765.18 1764.49 -2.94685e-10 0.116268 6.72541e-11
107 1 0.80576 12.5605 9.11613 1765.41 1765.34 1765.65 1.50825e-10 -0.061771 -5.64286e-10
108 1 4.0288 12.5605 11.3952 1765.41 1765.34 1765.65 3.04505e-10 -0.0617709 -3.65406e-10
127 1 0 13.9562 6.8371 1765.06 1765.18 1764.49 8.62434e-10 0.116268 -8.67883e-12
128 1 3.22304 13.9562 9.11613 1765.41 1765.34 1765.65 -3.04505e-10 -0.0617709 -9.43965e-10
129 1 1.61152 13.9562 11.3952 1765.41 1765.34 1765.65 -1.21802e-10 -0.0617709 -0
130 1 2.41728 15.3518 6.8371 1765.06 1765.18 1764.49 -1.94691e-10 0.116268 -1.05455e-09
131 1 0.80576 15.3518 9.11613 1765.41 1765.34 1765.65 1.51158e-09 -0.0617709 5.10522e-09
132 1 4.0288 15.3518 11.3952 1765.41 1765.34 1765.65 3.65406e-10 -0.0617709 -2.80145e-09
491 1 5.64032 12.5605 9.11613 1765.41 1765.34 1765.65 -9.13515e-11 -0.0617709 -5.06239e-10
511 1 4.83456 13.9562 6.8371 1765.06 1765.18 1764.49 2.25013e-10 0.116268 1.30195e-10
513 1 6.44608 13.9562 11.3952 1765.41 1765.34 1765.65 7.73517e-12 -0.0617709 7.69892e-10
515 1 5.64032 15.3518 9.11613 1765.41 1765.34 1765.65 2.90795e-09 -0.0617709 3.48736e-09
490 1 7.25184 12.5605 6.8371 1765.06 1765.18 1764.49 -2.94685e-10 0.116268 -2.67686e-10
492 1 8.86336 12.5605 11.3952 1765.41 1765.34 1765.65 -7.91713e-10 -0.0617709 -2.43604e-10
512 1 8.0576 13.9562 9.11613 1765.41 1765.34 1765.65 -1.3504e-10 -0.0617709 -6.41364e-10
514 1 7.25184 15.3518 6.8371 1765.06 1765.18 1764.49 2.98291e-09 0.116268 -5.60162e-10
516 1 8.86336 15.3518 11.3952 1765.41 1765.34 1765.65 9.22683e-10 -0.0617709 -2.57702e-09
874 1 12.0864 12.5605 6.8371 1765.06 1765.18 1764.49 -5.38288e-10 0.116268 -2.67701e-10
875 1 10.4749 12.5605 9.11613 1765.41 1765.34 1765.65 -5.79749e-10 -0.0617709 -3.20682e-10
895 1 9.66912 13.9562 6.8371 1765.06 1765.18 1764.49 -4.29673e-10 0.116268 2.36831e-10
897 1 11.2806 13.9562 11.3952 1765.41 1765.34 1765.65 9.90867e-11 -0.0617709 2.82684e-10
898 1 12.0864 15.3518 6.8371 1765.06 1765.18 1764.49 -3.35136e-09 0.116268 3.3373e-09
899 1 10.4749 15.3518 9.11613 1765.41 1765.34 1765.65 -3.06158e-09 -0.0617709 2.75927e-09
876 1 13.6979 12.5605 11.3952 1765.41 1765.34 1765.65 -7.30812e-10 -0.0617709 2.43604e-10
896 1 12.8922 13.9562 9.11613 1765.41 1765.34 1765.65 -6.2244e-11 -0.0617709 -1.52252e-10
900 1 13.6979 15.3518 11.3952 1765.41 1765.34 1765.65 1.8362e-09 -0.0617709 -2.33342e-09
1258 1 16.921 12.5605 6.8371 1765.06 1765.18 1764.49 -5.10802e-11 0.116268 -5.11305e-10
1259 1 15.3094 12.5605 9.11613 1765.41 1765.34 1765.65 -9.43965e-10 -0.0617709 1.64623e-10
1260 1 18.5325 12.5605 11.3952 1765.41 1765.34 1765.65 -8.52614e-10 -0.0617709 2.43604e-10
1279 1 14.5037 13.9562 6.8371 1765.06 1765.18 1764.49 -8.25615e-10 0.116268 -3.71911e-10
1280 1 17.7267 13.9562 9.11613 1765.41 1765.34 1765.65 -4.5585e-10 -0.0617709 -2.74054e-10
1281 1 16.1152 13.9562 11.3952 1765.41 1765.34 1765.65 -3.88121e-10 -0.0617709 2.82684e-10
1282 1 16.921 15.3518 6.8371 1765.06 1765.18 1764.49 -5.49476e-10 0.116268 -8.03858e-10
1283 1 15.3094 15.3518 9.11613 1765.41 1765.34 1765.65 1.08257e-09 -0.0617709 2.51485e-09
1284 1 18.5325 15.3518 11.3952 1765.41 1765.34 1765.65 -2.30525e-09 -0.0617709 -2.33342e-09
151 1 0 16.7474 6.8371 1765.06 1765.18 1764.49 2.71989e-09 0.116268 3.47749e-09
152 1 3.22304 16.7474 9.11613 1765.41 1765.34 1765.65 -5.50298e-09 -0.0617709 -3.52274e-09
153 1 1.61152 16.7474 11.3952 1765.41 1765.34 1765.65 -1.18757e-09 -0.0617709 2.92325e-09
154 1 2.41728 18.143 6.8371 1765.06 1765.18 1764.49 4.35993e-10 0.116268 2.19622e-10
155 1 0.80576 18.143 9.11613 1765.41 1765.34 1765.65 -3.46446e-09 -0.061771 1.34363e-09