3072
 Atoms. Timestep: 2
Pt 0.00031173 0.000359955 0.000220426
Pt 3.2233 0.000359955 2.27922
Pt 1.61181 0.000359955 4.55821
Pt 2.41755 1.39595 0.000220426
Pt 0.806058 1.39595 2.27922
Pt 4.02905 1.39595 4.55821
Pt 0.00031173 0.000359955 6.83721
Pt 3.2233 0.000359955 9.1162
Pt 1.61181 0.000359955 11.3952
Pt 2.41755 1.39595 6.83721
Pt 0.806058 1.39595 9.1162
Pt 4.02905 1.39595 11.3952
Pt 0.00031173 0.000359955 13.6742
Pt 3.2233 0.000359955 15.9532
Pt 1.61181 0.000359955 18.2322
Pt 2.41755 1.39595 13.6742
Pt 0.806058 1.39595 15.9532
Pt 4.02905 1.39595 18.2322
Pt 0.00031173 0.000359955 20.5112
Pt 3.2233 0.000359955 22.7902
Pt 1.61181 0.000359955 25.0692
Pt 2.41755 1.39595 20.5112
Pt 0.806058 1.39595 22.7902
Pt 4.02905 1.39595 25.0692
Pt 0.00031173 2.79155 0.000220426
Pt 3.2233 2.79155 2.27922
Pt 1.61181 2.79155 4.55821
Pt 2.41755 4.18714 0.000220426
Pt 0.806058 4.18714 2.27922
Pt 4.02905 4.18714 4.55821
Pt 0.00031173 2.79155 6.83721
Pt 3.2233 2.79155 9.1162
Pt 1.61181 2.79155 11.3952
Pt 2.41755 4.18714 6.83721
Pt 0.806058 4.18714 9.1162
Pt 4.02905 4.18714 11.3952
Pt 0.00031173 2.79155 13.6742
Pt 3.2233 2.79155 15.9532
Pt 1.61181 2.79155 18.2322
Pt 2.41755 4.18714 13.6742
Pt 0.806058 4.18714 15.9532
Pt 4.02905 4.18714 18.2322
Pt 0.00031173 2.79155 20.5112
Pt 3.2233 2.79155 22.7902
Pt 1.61181 2.79155 25.0692
Pt 2.41755 4.18714 20.5112
Pt 0.806058 4.18714 22.7902
Pt 4.02905 4.18714 25.0692
Pt 0.00031173 5.58274 0.000220426
Pt 3.2233 5.58274 2.27922
Pt 1.61181 5.58274 4.55821
Pt 2.41755 6.97833 0.000220426
Pt 0.806058 6.97833 2.27922
Pt 4.02905 6.97833 4.55821
Pt 0.00031173 5.58274 6.83721
Pt 3.2233 5.58274 9.1162
Pt 1.61181 5.58274 11.3952
Pt 2.41755 6.97833 6.83721
Pt 0.806058 6.97833 9.1162
Pt 4.02905 6.97833 11.3952
Pt 0.00031173 5.58274 13.6742
Pt 3.2233 5.58274 15.9532
Pt 1.61181 5.58274 18.2322
Pt 2.41755 6.97833 13.6742
Pt 0.806058 6.97833 15.9532
Pt 4.02905 6.97833 18.2322
Pt 0.00031173 5.58274 20.5112
Pt 3.2233 5.58274 22.7902
Pt 1.61181 5.58274 25.0692
Pt 2.41755 6.97833 20.5112
Pt 0.806058 6.97833 22.7902
Pt 4.02905 6.97833 25.0692
Pt 0.00031173 8.37392 0.000220426
Pt 3.2233 8.37392 2.27922
Pt 1.61181 8.37392 4.55821
Pt 2.41755 9.76952 0.000220426
Pt 0.806058 9.76952 2.27922
Pt 4.02905 9.76952 4.55821
Pt 0.00031173 8.37392 6.83721
Pt 3.2233 8.37392 9.1162
Pt 1.61181 8.37392 11.3952
Pt 2.41755 9.76952 6.83721
Pt 0.806058 9.76952 9.1162
Pt 4.02905 9.76952 11.3952
Pt 0.00031173 8.37392 13.6742
Pt 3.2233 8.37392 15.9532
Pt 1.61181 8.37392 18.2322
Pt 2.41755 9.76952 13.6742
Pt 0.806058 9.76952 15.9532
Pt 4.02905 9.76952 18.2322
Pt 0.00031173 8.37392 20.5112
Pt 3.2233 8.37392 22.7902
Pt 1.61181 8.37392 25.0692
Pt 2.41755 9.76952 20.5112
Pt 0.806058 9.76952 22.7902
Pt 4.02905 9.76952 25.0692
Pt 0.00031173 11.1651 0.000220426
Pt 3.2233 11.1651 2.27922
Pt 1.61181 11.1651 4.55821
Pt 2.41755 12.5607 0.000220426
Pt 0.806058 12.5607 2.27922
Pt 4.02905 12.5607 4.55821
Pt 0.00031173 11.1651 6.83721
Pt 3.2233 11.1651 9.1162
Pt 1.61181 11.1651 11.3952
Pt 2.41755 12.5607 6.83721
Pt 0.806058 12.5607 9.1162
Pt 4.02905 12.5607 11.3952
Pt 0.00031173 11.1651 13.6742
Pt 3.2233 11.1651 15.9532
Pt 1.61181 11.1651 18.2322
Pt 2.41755 12.5607 13.6742
Pt 0.806058 12.5607 15.9532
Pt 4.02905 12.5607 18.2322
Pt 0.00031173 11.1651 20.5112
Pt 3.2233 11.1651 22.7902
Pt 1.61181 11.1651 25.0692
Pt 2.41755 12.5607 20.5112
Pt 0.806058 12.5607 22.7902
Pt 4.02905 12.5607 25.0692
Pt 0.00031173 13.9563 0.000220426
Pt 3.2233 13.9563 2.27922
Pt 1.61181 13.9563 4.55821
Pt 2.41755 15.3519 0.000220426
Pt 0.806058 15.3519 2.27922
Pt 4.02905 15.3519 4.55821
Pt 0.00031173 13.9563 6.83721
Pt 3.2233 13.9563 9.1162
Pt 1.61181 13.9563 11.3952
Pt 2.41755 15.3519 6.83721
Pt 0.806058 15.3519 9.1162
Pt 4.02905 15.3519 11.3952
Pt 0.00031173 13.9563 13.6742
Pt 3.2233 13.9563 15.9532
Pt 1.61181 13.9563 18.2322
Pt 2.41755 15.3519 13.6742
Pt 0.806058 15.3519 15.9532
Pt 4.02905 15.3519 18.2322
Pt 0.00031173 13.9563 20.5112
Pt 3.2233 13.9563 22.7902
Pt 1.61181 13.9563 25.0692
Pt 2.41755 15.3519 20.5112
Pt 0.806058 15.3519 22.7902
Pt 4.02905 15.3519 25.0692
Pt 0.00031173 16.7475 0.000220426
Pt 3.2233 16.7475 2.27922
Pt 1.61181 16.7475 4.55821
Pt 2.41755 18.1431 0.000220426
Pt 0.806058 18.1431 2.27922
Pt 4.02905 18.1431 4.55821
Pt 0.00031173 16.7475 6.83721
Pt 3.2233 16.7475 9.1162
Pt 1.61181 16.7475 11.3952
Pt 2.41755 18.1431 6.83721
Pt 0.806058 18.1431 9.1162
Pt 4.02905 18.1431 11.3952
Pt 0.00031173 16.7475 13.6742
Pt 3.2233 16.7475 15.9532
Pt 1.61181 16.7475 18.2322
Pt 2.41755 18.1431 13.6742
Pt 0.806058 18.1431 15.9532
Pt 4.02905 18.1431 18.2322
Pt 0.00031173 16.7475 20.5112
Pt 3.2233 16.7475 22.7902
Pt 1.61181 16.7475 25.0692
Pt 2.41755 18.1431 20.5112
Pt 0.806058 18.1431 22.7902
Pt 4.02905 18.1431 25.0692
Pt 0.00031173 19.5387 0.000220426
Pt 3.2233 19.5387 2.27922
Pt 1.61181 19.5387 4.55821
Pt 2.41755 20.9343 0.000220426
Pt 0.806058 20.9343 2.27922
Pt 4.02905 20.9343 4.55821
Pt 0.00031173 19.5387 6.83721
Pt 3.2233 19.5387 9.1162
Pt 1.61181 19.5387 11.3952
Pt 2.41755 20.9343 6.83721
Pt 0.806058 20.9343 9.1162
Pt 4.02905 20.9343 11.3952
Pt 0.00031173 19.5387 13.6742
Pt 3.2233 19.5387 15.9532
Pt 1.61181 19.5387 18.2322
Pt 2.41755 20.9343 13.6742
Pt 0.806058 20.9343 15.9532
Pt 4.02905 20.9343 18.2322
Pt 0.00031173 19.5387 20.5112
Pt 3.2233 19.5387 22.7902
Pt 1.61181 19.5387 25.0692
Pt 2.41755 20.9343 20.5112
Pt 0.806058 20.9343 22.7902
Pt 4.02905 20.9343 25.0692
Pt 0.00031173 22.3299 0.000220426
Pt 3.2233 22.3299 2.27922
Pt 1.61181 22.3299 4.55821
Pt 2.41755 23.7255 0.000220426
Pt 0.806058 23.7255 2.27922
Pt 4.02905 23.7255 4.55821
Pt 0.00031173 22.3299 6.83721
Pt 3.2233 22.3299 9.1162
Pt 1.61181 22.3299 11.3952
Pt 2.41755 23.7255 6.83721
Pt 0.806058 23.7255 9.1162
Pt 4.02905 23.7255 11.3952
Pt 0.00031173 22.3299 13.6742
Pt 3.2233 22.3299 15.9532
Pt 1.61181 22.3299 18.2322
Pt 2.41755 23.7255 13.6742
Pt 0.806058 23.7255 15.9532
Pt 4.02905 23.7255 18.2322
Pt 0.00031173 22.3299 20.5112
Pt 3.2233 22.3299 22.7902
Pt 1.61181 22.3299 25.0692
Pt 2.41755 23.7255 20.5112
Pt 0.806058 23.7255 22.7902
Pt 4.02905 23.7255 25.0692
Pt 0.00031173 25.1211 0.000220426
Pt 3.2233 25.1211 2.27922
Pt 1.61181 25.1211 4.55821
Pt 2.41755 26.5166 0.000220426
Pt 0.806058 26.5166 2.27922
Pt 4.02905 26.5166 4.55821
Pt 0.00031173 25.1211 6.83721
Pt 3.2233 25.1211 9.1162
Pt 1.61181 25.1211 11.3952
Pt 2.41755 26.5166 6.83721
Pt 0.806058 26.5166 9.1162
Pt 4.02905 26.5166 11.3952
Pt 0.00031173 25.1211 13.6742
Pt 3.2233 25.1211 15.9532
Pt 1.61181 25.1211 18.2322
Pt 2.41755 26.5166 13.6742
Pt 0.806058 26.5166 15.9532
Pt 4.02905 26.5166 18.2322
Pt 0.00031173 25.1211 20.5112
Pt 3.2233 25.1211 22.7902
Pt 1.61181 25.1211 25.0692
Pt 2.41755 26.5166 20.5112
Pt 0.806058 26.5166 22.7902
Pt 4.02905 26.5166 25.0692
Pt 0.00031173 27.9122 0.000220426
Pt 3.2233 27.9122 2.27922
Pt 1.61181 27.9122 4.55821
Pt 2.41755 29.3078 0.000220426
Pt 0.806058 29.3078 2.27922
Pt 4.02905 29.3078 4.55821
Pt 0.00031173 27.9122 6.83721
Pt 3.2233 27.9122 9.1162
Pt 1.61181 27.9122 11.3952
Pt 2.41755 29.3078 6.83721
Pt 0.806058 29.3078 9.1162
Pt 4.02905 29.3078 11.3952
Pt 0.00031173 27.9122 13.6742
Pt 3.2233 27.9122 15.9532
Pt 1.61181 27.9122 18.2322
Pt 2.41755 29.3078 13.6742
Pt 0.806058 29.3078 15.9532
Pt 4.02905 29.3078 18.2322
Pt 0.00031173 27.9122 20.5112
Pt 3.2233 27.9122 22.7902
Pt 1.61181 27.9122 25.0692
Pt 2.41755 29.3078 20.5112
Pt 0.806058 29.3078 22.7902
Pt 4.02905 29.3078 25.0692
Pt 0.00031173 30.7034 0.000220426
Pt 3.2233 30.7034 2.27922
Pt 1.61181 30.7034 4.55821
Pt 2.41755 32.099 0.000220426
Pt 0.806058 32.099 2.27922
Pt 4.02905 32.099 4.55821
Pt 0.00031173 30.7034 6.83721
Pt 3.2233 30.7034 9.1162
Pt 1.61181 30.7034 11.3952
Pt 2.41755 32.099 6.83721
Pt 0.806058 32.099 9.1162
Pt 4.02905 32.099 11.3952
Pt 0.00031173 30.7034 13.6742
Pt 3.2233 30.7034 15.9532
Pt 1.61181 30.7034 18.2322
Pt 2.41755 32.099 13.6742
Pt 0.806058 32.099 15.9532
Pt 4.02905 32.099 18.2322
Pt 0.00031173 30.7034 20.5112
Pt 3.2233 30.7034 22.7902
Pt 1.61181 30.7034 25.0692
Pt 2.41755 32.099 20.5112
Pt 0.806058 32.099 22.7902
Pt 4.02905 32.099 25.0692
Pt 0.00031173 33.4946 0.000220426
Pt 3.2233 33.4946 2.27922
Pt 1.61181 33.4946 4.55821
Pt 2.41755 34.8902 0.000220426
Pt 0.806058 34.8902 2.27922
Pt 4.02905 34.8902 4.55821
Pt 0.00031173 33.4946 6.83721
Pt 3.2233 33.4946 9.1162
Pt 1.61181 33.4946 11.3952
Pt 2.41755 34.8902 6.83721
Pt 0.806058 34.8902 9.1162
Pt 4.02905 34.8902 11.3952
Pt 0.00031173 33.4946 13.6742
Pt 3.2233 33.4946 15.9532
Pt 1.61181 33.4946 18.2322
Pt 2.41755 34.8902 13.6742
Pt 0.806058 34.8902 15.9532
Pt 4.02905 34.8902 18.2322
Pt 0.00031173 33.4946 20.5112
Pt 3.2233 33.4946 22.7902
Pt 1.61181 33.4946 25.0692
Pt 2.41755 34.8902 20.5112
Pt 0.806058 34.8902 22.7902
Pt 4.02905 34.8902 25.0692
Pt 0.00031173 36.2858 0.000220426
Pt 3.2233 36.2858 2.27922
Pt 1.61181 36.2858 4.55821
Pt 2.41755 37.6814 0.000220426
Pt 0.806058 37.6814 2.27922
Pt 4.02905 37.6814 4.55821
Pt 0.00031173 36.2858 6.83721
Pt 3.2233 36.2858 9.1162
Pt 1.61181 36.2858 11.3952
Pt 2.41755 37.6814 6.83721
Pt 0.806058 37.6814 9.1162
Pt 4.02905 37.6814 11.3952
Pt 0.00031173 36.2858 13.6742
Pt 3.2233 36.2858 15.9532
Pt 1.61181 36.2858 18.2322
Pt 2.41755 37.6814 13.6742
Pt 0.806058 37.6814 15.9532
Pt 4.02905 37.6814 18.2322
Pt 0.00031173 36.2858 20.5112
Pt 3.2233 36.2858 22.7902
Pt 1.61181 36.2858 25.0692
Pt 2.41755 37.6814 20.5112
Pt 0.806058 37.6814 22.7902
Pt 4.02905 37.6814 25.0692
Pt 0.00031173 39.077 0.000220426
Pt 3.2233 39.077 2.27922
Pt 1.61181 39.077 4.55821
Pt 2.41755 40.4726 0.000220426
Pt 0.806058 40.4726 2.27922
Pt 4.02905 40.4726 4.55821
Pt 0.00031173 39.077 6.83721
Pt 3.2233 39.077 9.1162
Pt 1.61181 39.077 11.3952
Pt 2.41755 40.4726 6.83721
Pt 0.806058 40.4726 9.1162
Pt 4.02905 40.4726 11.3952
Pt 0.00031173 39.077 13.6742
Pt 3.2233 39.077 15.9532
Pt 1.61181 39.077 18.2322
Pt 2.41755 40.4726 13.6742
Pt 0.806058 40.4726 15.9532
Pt 4.02905 40.4726 18.2322
Pt 0.00031173 39.077 20.5112
Pt 3.2233 39.077 22.7902
Pt 1.61181 39.077 25.0692
Pt 2.41755 40.4726 20.5112
Pt 0.806058 40.4726 22.7902
Pt 4.02905 40.4726 25.0692
Pt 0.00031173 41.8682 0.000220426
Pt 3.2233 41.8682 2.27922
Pt 1.61181 41.8682 4.55821
Pt 2.41755 43.2638 0.000220426
Pt 0.806058 43.2638 2.27922
Pt 4.02905 43.2638 4.55821
Pt 0.00031173 41.8682 6.83721
Pt 3.2233 41.8682 9.1162
Pt 1.61181 41.8682 11.3952
Pt 2.41755 43.2638 6.83721
Pt 0.806058 43.2638 9.1162
Pt 4.02905 43.2638 11.3952
Pt 0.00031173 41.8682 13.6742
Pt 3.2233 41.8682 15.9532
Pt 1.61181 41.8682 18.2322
Pt 2.41755 43.2638 13.6742
Pt 0.806058 43.2638 15.9532
Pt 4.02905 43.2638 18.2322
Pt 0.00031173 41.8682 20.5112
Pt 3.2233 41.8682 22.7902
Pt 1.61181 41.8682 25.0692
Pt 2.41755 43.2638 20.5112
Pt 0.806058 43.2638 22.7902
Pt 4.02905 43.2638 25.0692
Pt 4.83479 0.000359955 0.000220426
Pt 8.05778 0.000359955 2.27922
Pt 6.44629 0.000359955 4.55821
Pt 7.25203 1.39595 0.000220426
Pt 5.64054 1.39595 2.27922
Pt 8.86353 1.39595 4.55821
Pt 4.83479 0.000359955 6.83721
Pt 8.05778 0.000359955 9.1162
Pt 6.44629 0.000359955 11.3952
Pt 7.25203 1.39595 6.83721
Pt 5.64054 1.39595 9.1162
Pt 8.86353 1.39595 11.3952
Pt 4.83479 0.000359955 13.6742
Pt 8.05778 0.000359955 15.9532
Pt 6.44629 0.000359955 18.2322
Pt 7.25203 1.39595 13.6742
Pt 5.64054 1.39595 15.9532
Pt 8.86353 1.39595 18.2322
Pt 4.83479 0.000359955 20.5112
Pt 8.05778 0.000359955 22.7902
Pt 6.44629 0.000359955 25.0692
Pt 7.25203 1.39595 20.5112
Pt 5.64054 1.39595 22.7902
Pt 8.86353 1.39595 25.0692
Pt 4.83479 2.79155 0.000220426
Pt 8.05778 2.79155 2.27922
Pt 6.44629 2.79155 4.55821
Pt 7.25203 4.18714 0.000220426
Pt 5.64054 4.18714 2.27922
Pt 8.86353 4.18714 4.55821
Pt 4.83479 2.79155 6.83721
Pt 8.05778 2.79155 9.1162
Pt 6.44629 2.79155 11.3952
Pt 7.25203 4.18714 6.83721
Pt 5.64054 4.18714 9.1162
Pt 8.86353 4.18714 11.3952
Pt 4.83479 2.79155 13.6742
Pt 8.05778 2.79155 15.9532
Pt 6.44629 2.79155 18.2322
Pt 7.25203 4.18714 13.6742
Pt 5.64054 4.18714 15.9532
Pt 8.86353 4.18714 18.2322
Pt 4.83479 2.79155 20.5112
Pt 8.05778 2.79155 22.7902
Pt 6.44629 2.79155 25.0692
Pt 7.25203 4.18714 20.5112
Pt 5.64054 4.18714 22.7902
Pt 8.86353 4.18714 25.0692
Pt 4.83479 5.58274 0.000220426
Pt 8.05778 5.58274 2.27922
Pt 6.44629 5.58274 4.55821
Pt 7.25203 6.97833 0.000220426
Pt 5.64054 6.97833 2.27922
Pt 8.86353 6.97833 4.55821
Pt 4.83479 5.58274 6.83721
Pt 8.05778 5.58274 9.1162
Pt 6.44629 5.58274 11.3952
Pt 7.25203 6.97833 6.83721
Pt 5.64054 6.97833 9.1162
Pt 8.86353 6.97833 11.3952
Pt 4.83479 5.58274 13.6742
Pt 8.05778 5.58274 15.9532
Pt 6.44629 5.58274 18.2322
Pt 7.25203 6.97833 13.6742
Pt 5.64054 6.97833 15.9532
Pt 8.86353 6.97833 18.2322
Pt 4.83479 5.58274 20.5112
Pt 8.05778 5.58274 22.7902
Pt 6.44629 5.58274 25.0692
Pt 7.25203 6.97833 20.5112
Pt 5.64054 6.97833 22.7902
Pt 8.86353 6.97833 25.0692
Pt 4.83479 8.37392 0.000220426
Pt 8.05778 8.37392 2.27922
Pt 6.44629 8.37392 4.55821
Pt 7.25203 9.76952 0.000220426
Pt 5.64054 9.76952 2.27922
Pt 8.86353 9.76952 4.55821
Pt 4.83479 8.37392 6.83721
Pt 8.05778 8.37392 9.1162
Pt 6.44629 8.37392 11.3952
Pt 7.25203 9.76952 6.83721
Pt 5.64054 9.76952 9.1162
Pt 8.86353 9.76952 11.3952
Pt 4.83479 8.37392 13.6742
Pt 8.05778 8.37392 15.9532
Pt 6.44629 8.37392 18.2322
Pt 7.25203 9.76952 13.6742
Pt 5.64054 9.76952 15.9532
Pt 8.86353 9.76952 18.2322
Pt 4.83479 8.37392 20.5112
Pt 8.05778 8.37392 22.7902
Pt 6.44629 8.37392 25.0692
Pt 7.25203 9.76952 20.5112
Pt 5.64054 9.76952 22.7902
Pt 8.86353 9.76952 25.0692
Pt 4.83479 11.1651 0.000220426
Pt 8.05778 11.1651 2.27922
Pt 6.44629 11.1651 4.55821
Pt 7.25203 12.5607 0.000220426
Pt 5.64054 12.5607 2.27922
Pt 8.86353 12.5607 4.55821
Pt 4.83479 11.1651 6.83721
Pt 8.05778 11.1651 9.1162
Pt 6.44629 11.1651 11.3952
Pt 7.25203 12.5607 6.83721
Pt 5.64054 12.5607 9.1162
Pt 8.86353 12.5607 11.3952
Pt 4.83479 11.1651 13.6742
Pt 8.05778 11.1651 15.9532
Pt 6.44629 11.1651 18.2322
Pt 7.25203 12.5607 13.6742
Pt 5.64054 12.5607 15.9532
Pt 8.86353 12.5607 18.2322
Pt 4.83479 11.1651 20.5112
Pt 8.05778 11.1651 22.7902
Pt 6.44629 11.1651 25.0692
Pt 7.25203 12.5607 20.5112
Pt 5.64054 12.5607 22.7902
Pt 8.86353 12.5607 25.0692
Pt 4.83479 13.9563 0.000220426
Pt 8.05778 13.9563 2.27922
Pt 6.44629 13.9563 4.55821
Pt 7.25203 15.3519 0.000220426
Pt 5.64054 15.3519 2.27922
Pt 8.86353 15.3519 4.55821
Pt 4.83479 13.9563 6.83721
Pt 8.05778 13.9563 9.1162
Pt 6.44629 13.9563 11.3952
Pt 7.25203 15.3519 6.83721
Pt 5.64054 15.3519 9.1162
Pt 8.86353 15.3519 11.3952
Pt 4.83479 13.9563 13.6742
Pt 8.05778 13.9563 15.9532
Pt 6.44629 13.9563 18.2322
Pt 7.25203 15.3519 13.6742
Pt 5.64054 15.3519 15.9532
Pt 8.86353 15.3519 18.2322
Pt 4.83479 13.9563 20.5112
Pt 8.05778 13.9563 22.7902
Pt 6.44629 13.9563 25.0692
Pt 7.25203 15.3519 20.5112
Pt 5.64054 15.3519 22.7902
Pt 8.86353 15.3519 25.0692
Pt 4.83479 16.7475 0.000220426
Pt 8.05778 16.7475 2.27922
Pt 6.44629 16.7475 4.55821
Pt 7.25203 18.1431 0.000220426
Pt 5.64054 18.1431 2.27922
Pt 8.86353 18.1431 4.55821
Pt 4.83479 16.7475 6.83721
Pt 8.05778 16.7475 9.1162
Pt 6.44629 16.7475 11.3952
Pt 7.25203 18.1431 6.83721
Pt 5.64054 18.1431 9.1162
Pt 8.86353 18.1431 11.3952
Pt 4.83479 16.7475 13.6742
Pt 8.05778 16.7475 15.9532
Pt 6.44629 16.7475 18.2322
Pt 7.25203 18.1431 13.6742
Pt 5.64054 18.1431 15.9532
Pt 8.86353 18.1431 18.2322
Pt 4.83479 16.7475 20.5112
Pt 8.05778 16.7475 22.7902
Pt 6.44629 16.7475 25.0692
Pt 7.25203 18.1431 20.5112
Pt 5.64054 18.1431 22.7902
Pt 8.86353 18.1431 25.0692
Pt 4.83479 19.5387 0.000220426
Pt 8.05778 19.5387 2.27922
Pt 6.44629 19.5387 4.55821
Pt 7.25203 20.9343 0.000220426
Pt 5.64054 20.9343 2.27922
Pt 8.86353 20.9343 4.55821
Pt 4.83479 19.5387 6.83721
Pt 8.05778 19.5387 9.1162
Pt 6.44629 19.5387 11.3952
Pt 7.25203 20.9343 6.83721
Pt 5.64054 20.9343 9.1162
Pt 8.86353 20.9343 11.3952
Pt 4.83479 19.5387 13.6742
Pt 8.05778 19.5387 15.9532
Pt 6.44629 19.5387 18.2322
Pt 7.25203 20.9343 13.6742
Pt 5.64054 20.9343 15.9532
Pt 8.86353 20.9343 18.2322
Pt 4.83479 19.5387 20.5112
Pt 8.05778 19.5387 22.7902
Pt 6.44629 19.5387 25.0692
Pt 7.25203 20.9343 20.5112
Pt 5.64054 20.9343 22.7902
Pt 8.86353 20.9343 25.0692
Pt 4.83479 22.3299 0.000220426
Pt 8.05778 22.3299 2.27922
Pt 6.44629 22.3299 4.55821
Pt 7.25203 23.7255 0.000220426
Pt 5.64054 23.7255 2.27922
Pt 8.86353 23.7255 4.55821
Pt 4.83479 22.3299 6.83721
Pt 8.05778 22.3299 9.1162
Pt 6.44629 22.3299 11.3952
Pt 7.25203 23.7255 6.83721
Pt 5.64054 23.7255 9.1162
Pt 8.86353 23.7255 11.3952
Pt 4.83479 22.3299 13.6742
Pt 8.05778 22.3299 15.9532
Pt 6.44629 22.3299 18.2322
Pt 7.25203 23.7255 13.6742
Pt 5.64054 23.7255 15.9532
Pt 8.86353 23.7255 18.2322
Pt 4.83479 22.3299 20.5112
Pt 8.05778 22.3299 22.7902
Pt 6.44629 22.3299 25.0692
Pt 7.25203 23.7255 20.5112
Pt 5.64054 23.7255 22.7902
Pt 8.86353 23.7255 25.0692
Pt 4.83479 25.1211 0.000220426
Pt 8.05778 25.1211 2.27922
Pt 6.44629 25.1211 4.55821
Pt 7.25203 26.5166 0.000220426
Pt 5.64054 26.5166 2.27922
Pt 8.86353 26.5166 4.55821
Pt 4.83479 25.1211 6.83721
Pt 8.05778 25.1211 9.1162
Pt 6.44629 25.1211 11.3952
Pt 7.25203 26.5166 6.83721
Pt 5.64054 26.5166 9.1162
Pt 8.86353 26.5166 11.3952
Pt 4.83479 25.1211 13.6742
Pt 8.05778 25.1211 15.9532
Pt 6.44629 25.1211 18.2322
Pt 7.25203 26.5166 13.6742
Pt 5.64054 26.5166 15.9532
Pt 8.86353 26.5166 18.2322
Pt 4.83479 25.1211 20.5112
Pt 8.05778 25.1211 22.7902
Pt 6.44629 25.1211 25.0692
Pt 7.25203 26.5166 20.5112
Pt 5.64054 26.5166 22.7902
Pt 8.86353 26.5166 25.0692
Pt 4.83479 27.9122 0.000220426
Pt 8.05778 27.9122 2.27922
Pt 6.44629 27.9122 4.55821
Pt 7.25203 29.3078 0.000220426
Pt 5.64054 29.3078 2.27922
Pt 8.86353 29.3078 4.55821
Pt 4.83479 27.9122 6.83721
Pt 8.05778 27.9122 9.1162
Pt 6.44629 27.9122 11.3952
Pt 7.25203 29.3078 6.83721
Pt 5.64054 29.3078 9.1162
Pt 8.86353 29.3078 11.3952
Pt 4.83479 27.9122 13.6742
Pt 8.05778 27.9122 15.9532
Pt 6.44629 27.9122 18.2322
Pt 7.25203 29.3078 13.6742
Pt 5.64054 29.3078 15.9532
Pt 8.86353 29.3078 18.2322
Pt 4.83479 27.9122 20.5112
Pt 8.05778 27.9122 22.7902
Pt 6.44629 27.9122 25.0692
Pt 7.25203 29.3078 20.5112
Pt 5.64054 29.3078 22.7902
Pt 8.86353 29.3078 25.0692
Pt 4.83479 30.7034 0.000220426
Pt 8.05778 30.7034 2.27922
Pt 6.44629 30.7034 4.55821
Pt 7.25203 32.099 0.000220426
Pt 5.64054 32.099 2.27922
Pt 8.86353 32.099 4.55821
Pt 4.83479 30.7034 6.83721
Pt 8.05778 30.7034 9.1162
Pt 6.44629 30.7034 11.3952
Pt 7.25203 32.099 6.83721
Pt 5.64054 32.099 9.1162
Pt 8.86353 32.099 11.3952
Pt 4.83479 30.7034 13.6742
Pt 8.05778 30.7034 15.9532
Pt 6.44629 30.7034 18.2322
Pt 7.25203 32.099 13.6742
Pt 5.64054 32.099 15.9532
Pt 8.86353 32.099 18.2322
Pt 4.83479 30.7034 20.5112
Pt 8.05778 30.7034 22.7902
Pt 6.44629 30.7034 25.0692
Pt 7.25203 32.099 20.5112
Pt 5.64054 32.099 22.7902
Pt 8.86353 32.099 25.0692
Pt 4.83479 33.4946 0.000220426
Pt 8.05778 33.4946 2.27922
Pt 6.44629 33.4946 4.55821
Pt 7.25203 34.8902 0.000220426
Pt 5.64054 34.8902 2.27922
Pt 8.86353 34.8902 4.55821
Pt 4.83479 33.4946 6.83721
Pt 8.05778 33.4946 9.1162
Pt 6.44629 33.4946 11.3952
Pt 7.25203 34.8902 6.83721
Pt 5.64054 34.8902 9.1162
Pt 8.86353 34.8902 11.3952
Pt 4.83479 33.4946 13.6742
Pt 8.05778 33.4946 15.9532
Pt 6.44629 33.4946 18.2322
Pt 7.25203 34.8902 13.6742
Pt 5.64054 34.8902 15.9532
Pt 8.86353 34.8902 18.2322
Pt 4.83479 33.4946 20.5112
Pt 8.05778 33.4946 22.7902
Pt 6.44629 33.4946 25.0692
Pt 7.25203 34.8902 20.5112
Pt 5.64054 34.8902 22.7902
Pt 8.86353 34.8902 25.0692
Pt 4.83479 36.2858 0.000220426
Pt 8.05778 36.2858 2.27922
Pt 6.44629 36.2858 4.55821
Pt 7.25203 37.6814 0.000220426
Pt 5.64054 37.6814 2.27922
Pt 8.86353 37.6814 4.55821
Pt 4.83479 36.2858 6.83721
Pt 8.05778 36.2858 9.1162
Pt 6.44629 36.2858 11.3952
Pt 7.25203 37.6814 6.83721
Pt 5.64054 37.6814 9.1162
Pt 8.86353 37.6814 11.3952
Pt 4.83479 36.2858 13.6742
Pt 8.05778 36.2858 15.9532
Pt 6.44629 36.2858 18.2322
Pt 7.25203 37.6814 13.6742
Pt 5.64054 37.6814 15.9532
Pt 8.86353 37.6814 18.2322
Pt 4.83479 36.2858 20.5112
Pt 8.05778 36.2858 22.7902
Pt 6.44629 36.2858 25.0692
Pt 7.25203 37.6814 20.5112
Pt 5.64054 37.6814 22.7902
Pt 8.86353 37.6814 25.0692
Pt 4.83479 39.077 0.000220426
Pt 8.05778 39.077 2.27922
Pt 6.44629 39.077 4.55821
Pt 7.25203 40.4726 0.000220426
Pt 5.64054 40.4726 2.27922
Pt 8.86353 40.4726 4.55821
Pt 4.83479 39.077 6.83721
Pt 8.05778 39.077 9.1162
Pt 6.44629 39.077 11.3952
Pt 7.25203 40.4726 6.83721
Pt 5.64054 40.4726 9.1162
Pt 8.86353 40.4726 11.3952
Pt 4.83479 39.077 13.6742
Pt 8.05778 39.077 15.9532
Pt 6.44629 39.077 18.2322
Pt 7.25203 40.4726 13.6742
Pt 5.64054 40.4726 15.9532
Pt 8.86353 40.4726 18.2322
Pt 4.83479 39.077 20.5112
Pt 8.05778 39.077 22.7902
Pt 6.44629 39.077 25.0692
Pt 7.25203 40.4726 20.5112
Pt 5.64054 40.4726 22.7902
Pt 8.86353 40.4726 25.0692
Pt 4.83479 41.8682 0.000220426
Pt 8.05778 41.8682 2.27922
Pt 6.44629 41.8682 4.55821
Pt 7.25203 43.2638 0.000220426
Pt 5.64054 43.2638 2.27922
Pt 8.86353 43.2638 4.55821
Pt 4.83479 41.8682 6.83721
Pt 8.05778 41.8682 9.1162
Pt 6.44629 41.8682 11.3952
Pt 7.25203 43.2638 6.83721
Pt 5.64054 43.2638 9.1162
Pt 8.86353 43.2638 11.3952
Pt 4.83479 41.8682 13.6742
Pt 8.05778 41.8682 15.9532
Pt 6.44629 41.8682 18.2322
Pt 7.25203 43.2638 13.6742
Pt 5.64054 43.2638 15.9532
Pt 8.86353 43.2638 18.2322
Pt 4.83479 41.8682 20.5112
Pt 8.05778 41.8682 22.7902
Pt 6.44629 41.8682 25.0692
Pt 7.25203 43.2638 20.5112
Pt 5.64054 43.2638 22.7902
Pt 8.86353 43.2638 25.0692
Pt 9.66927 0.000359955 0.000220426
Pt 12.8923 0.000359955 2.27922
Pt 11.2808 0.000359955 4.55821
Pt 12.0865 1.39595 0.000220426
Pt 10.475 1.39595 2.27922
Pt 13.698 1.39595 4.55821
Pt 9.66927 0.000359955 6.83721
Pt 12.8923 0.000359955 9.1162
Pt 11.2808 0.000359955 11.3952
Pt 12.0865 1.39595 6.83721
Pt 10.475 1.39595 9.1162
Pt 13.698 1.39595 11.3952
Pt 9.66927 0.000359955 13.6742
Pt 12.8923 0.000359955 15.9532
Pt 11.2808 0.000359955 18.2322
Pt 12.0865 1.39595 13.6742
Pt 10.475 1.39595 15.9532
Pt 13.698 1.39595 18.2322
Pt 9.66927 0.000359955 20.5112
Pt 12.8923 0.000359955 22.7902
Pt 11.2808 0.000359955 25.0692
Pt 12.0865 1.39595 20.5112
Pt 10.475 1.39595 22.7902
Pt 13.698 1.39595 25.0692
Pt 9.66927 2.79155 0.000220426
Pt 12.8923 2.79155 2.27922
Pt 11.2808 2.79155 4.55821
Pt 12.0865 4.18714 0.000220426
Pt 10.475 4.18714 2.27922
Pt 13.698 4.18714 4.55821
Pt 9.66927 2.79155 6.83721
Pt 12.8923 2.79155 9.1162
Pt 11.2808 2.79155 11.3952
Pt 12.0865 4.18714 6.83721
Pt 10.475 4.18714 9.1162
Pt 13.698 4.18714 11.3952
Pt 9.66927 2.79155 13.6742
Pt 12.8923 2.79155 15.9532
Pt 11.2808 2.79155 18.2322
Pt 12.0865 4.18714 13.6742
Pt 10.475 4.18714 15.9532
Pt 13.698 4.18714 18.2322
Pt 9.66927 2.79155 20.5112
Pt 12.8923 2.79155 22.7902
Pt 11.2808 2.79155 25.0692
Pt 12.0865 4.18714 20.5112
Pt 10.475 4.18714 22.7902
Pt 13.698 4.18714 25.0692
Pt 9.66927 5.58274 0.000220426
Pt 12.8923 5.58274 2.27922
Pt 11.2808 5.58274 4.55821
Pt 12.0865 6.97833 0.000220426
Pt 10.475 6.97833 2.27922
Pt 13.698 6.97833 4.55821
Pt 9.66927 5.58274 6.83721
Pt 12.8923 5.58274 9.1162
Pt 11.2808 5.58274 11.3952
Pt 12.0865 6.97833 6.83721
Pt 10.475 6.97833 9.1162
Pt 13.698 6.97833 11.3952
Pt 9.66927 5.58274 13.6742
Pt 12.8923 5.58274 15.9532
Pt 11.2808 5.58274 18.2322
Pt 12.0865 6.97833 13.6742
Pt 10.475 6.97833 15.9532
Pt 13.698 6.97833 18.2322
Pt 9.66927 5.58274 20.5112
Pt 12.8923 5.58274 22.7902
Pt 11.2808 5.58274 25.0692
Pt 12.0865 6.97833 20.5112
Pt 10.475 6.97833 22.7902
Pt 13.698 6.97833 25.0692
Pt 9.66927 8.37392 0.000220426
Pt 12.8923 8.37392 2.27922
Pt 11.2808 8.37392 4.55821
Pt 12.0865 9.76952 0.000220426
Pt 10.475 9.76952 2.27922
Pt 13.698 9.76952 4.55821
Pt 9.66927 8.37392 6.83721
Pt 12.8923 8.37392 9.1162
Pt 11.2808 8.37392 11.3952
Pt 12.0865 9.76952 6.83721
Pt 10.475 9.76952 9.1162
Pt 13.698 9.76952 11.3952
Pt 9.66927 8.37392 13.6742
Pt 12.8923 8.37392 15.9532
Pt 11.2808 8.37392 18.2322
Pt 12.0865 9.76952 13.6742
Pt 10.475 9.76952 15.9532
Pt 13.698 9.76952 18.2322
Pt 9.66927 8.37392 20.5112
Pt 12.8923 8.37392 22.7902
Pt 11.2808 8.37392 25.0692
Pt 12.0865 9.76952 20.5112
Pt 10.475 9.76952 22.7902
Pt 13.698 9.76952 25.0692
Pt 9.66927 11.1651 0.000220426
Pt 12.8923 11.1651 2.27922
Pt 11.2808 11.1651 4.55821
Pt 12.0865 12.5607 0.000220426
Pt 10.475 12.5607 2.27922
Pt 13.698 12.5607 4.55821
Pt 9.66927 11.1651 6.83721
Pt 12.8923 11.1651 9.1162
Pt 11.2808 11.1651 11.3952
Pt 12.0865 12.5607 6.83721
Pt 10.475 12.5607 9.1162
Pt 13.698 12.5607 11.3952
Pt 9.66927 11.1651 13.6742
Pt 12.8923 11.1651 15.9532
Pt 11.2808 11.1651 18.2322
Pt 12.0865 12.5607 13.6742
Pt 10.475 12.5607 15.9532
Pt 13.698 12.5607 18.2322
Pt 9.66927 11.1651 20.5112
Pt 12.8923 11.1651 22.7902
Pt 11.2808 11.1651 25.0692
Pt 12.0865 12.5607 20.5112
Pt 10.475 12.5607 22.7902
Pt 13.698 12.5607 25.0692
Pt 9.66927 13.9563 0.000220426
Pt 12.8923 13.9563 2.27922
Pt 11.2808 13.9563 4.55821
Pt 12.0865 15.3519 0.000220426
Pt 10.475 15.3519 2.27922
Pt 13.698 15.3519 4.55821
Pt 9.66927 13.9563 6.83721
Pt 12.8923 13.9563 9.1162
Pt 11.2808 13.9563 11.3952
Pt 12.0865 15.3519 6.83721
Pt 10.475 15.3519 9.1162
Pt 13.698 15.3519 11.3952
Pt 9.66927 13.9563 13.6742
Pt 12.8923 13.9563 15.9532
Pt 11.2808 13.9563 18.2322
Pt 12.0865 15.3519 13.6742
Pt 10.475 15.3519 15.9532
Pt 13.698 15.3519 18.2322
Pt 9.66927 13.9563 20.5112
Pt 12.8923 13.9563 22.7902
Pt 11.2808 13.9563 25.0692
Pt 12.0865 15.3519 20.5112
Pt 10.475 15.3519 22.7902
Pt 13.698 15.3519 25.0692
Pt 9.66927 16.7475 0.000220426
Pt 12.8923 16.7475 2.27922
Pt 11.2808 16.7475 4.55821
Pt 12.0865 18.1431 0.000220426
Pt 10.475 18.1431 2.27922
Pt 13.698 18.1431 4.55821
Pt 9.66927 16.7475 6.83721
Pt 12.8923 16.7475 9.1162
Pt 11.2808 16.7475 11.3952
Pt 12.0865 18.1431 6.83721
Pt 10.475 18.1431 9.1162
Pt 13.698 18.1431 11.3952
Pt 9.66927 16.7475 13.6742
Pt 12.8923 16.7475 15.9532
Pt 11.2808 16.7475 18.2322
Pt 12.0865 18.1431 13.6742
Pt 10.475 18.1431 15.9532
Pt 13.698 18.1431 18.2322
Pt 9.66927 16.7475 20.5112
Pt 12.8923 16.7475 22.7902
Pt 11.2808 16.7475 25.0692
Pt 12.0865 18.1431 20.5112
Pt 10.475 18.1431 22.7902
Pt 13.698 18.1431 25.0692
Pt 9.66927 19.5387 0.000220426
Pt 12.8923 19.5387 2.27922
Pt 11.2808 19.5387 4.55821
Pt 12.0865 20.9343 0.000220426
Pt 10.475 20.9343 2.27922
Pt 13.698 20.9343 4.55821
Pt 9.66927 19.5387 6.83721
Pt 12.8923 19.5387 9.1162
Pt 11.2808 19.5387 11.3952
Pt 12.0865 20.9343 6.83721
Pt 10.475 20.9343 9.1162
Pt 13.698 20.9343 11.3952
Pt 9.66927 19.5387 13.6742
Pt 12.8923 19.5387 15.9532
Pt 11.2808 19.5387 18.2322
Pt 12.0865 20.9343 13.6742
Pt 10.475 20.9343 15.9532
Pt 13.698 20.9343 18.2322
Pt 9.66927 19.5387 20.5112
Pt 12.8923 19.5387 22.7902
Pt 11.2808 19.5387 25.0692
Pt 12.0865 20.9343 20.5112
Pt 10.475 20.9343 22.7902
Pt 13.698 20.9343 25.0692
Pt 9.66927 22.3299 0.000220426
Pt 12.8923 22.3299 2.27922
Pt 11.2808 22.3299 4.55821
Pt 12.0865 23.7255 0.000220426
Pt 10.475 23.7255 2.27922
Pt 13.698 23.7255 4.55821
Pt 9.66927 22.3299 6.83721
Pt 12.8923 22.3299 9.1162
Pt 11.2808 22.3299 11.3952
Pt 12.0865 23.7255 6.83721
Pt 10.475 23.7255 9.1162
Pt 13.698 23.7255 11.3952
Pt 9.66927 22.3299 13.6742
Pt 12.8923 22.3299 15.9532
Pt 11.2808 22.3299 18.2322
Pt 12.0865 23.7255 13.6742
Pt 10.475 23.7255 15.9532
Pt 13.698 23.7255 18.2322
Pt 9.66927 22.3299 20.5112
Pt 12.8923 22.3299 22.7902
Pt 11.2808 22.3299 25.0692
Pt 12.0865 23.7255 20.5112
Pt 10.475 23.7255 22.7902
Pt 13.698 23.7255 25.0692
Pt 9.66927 25.1211 0.000220426
Pt 12.8923 25.1211 2.27922
Pt 11.2808 25.1211 4.55821
Pt 12.0865 26.5166 0.000220426
Pt 10.475 26.5166 2.27922
Pt 13.698 26.5166 4.55821
Pt 9.66927 25.1211 6.83721
Pt 12.8923 25.1211 9.1162
Pt 11.2808 25.1211 11.3952
Pt 12.0865 26.5166 6.83721
Pt 10.475 26.5166 9.1162
Pt 13.698 26.5166 11.3952
Pt 9.66927 25.1211 13.6742
Pt 12.8923 25.1211 15.9532
Pt 11.2808 25.1211 18.2322
Pt 12.0865 26.5166 13.6742
Pt 10.475 26.5166 15.9532
Pt 13.698 26.5166 18.2322
Pt 9.66927 25.1211 20.5112
Pt 12.8923 25.1211 22.7902
Pt 11.2808 25.1211 25.0692
Pt 12.0865 26.5166 20.5112
Pt 10.475 26.5166 22.7902
Pt 13.698 26.5166 25.0692
Pt 9.66927 27.9122 0.000220426
Pt 12.8923 27.9122 2.27922
Pt 11.2808 27.9122 4.55821
Pt 12.0865 29.3078 0.000220426
Pt 10.475 29.3078 2.27922
Pt 13.698 29.3078 4.55821
Pt 9.66927 27.9122 6.83721
Pt 12.8923 27.9122 9.1162
Pt 11.2808 27.9122 11.3952
Pt 12.0865 29.3078 6.83721
Pt 10.475 29.3078 9.1162
Pt 13.698 29.3078 11.3952
Pt 9.66927 27.9122 13.6742
Pt 12.8923 27.9122 15.9532
Pt 11.2808 27.9122 18.2322
Pt 12.0865 29.3078 13.6742
Pt 10.475 29.3078 15.9532
Pt 13.698 29.3078 18.2322
Pt 9.66927 27.9122 20.5112
Pt 12.8923 27.9122 22.7902
Pt 11.2808 27.9122 25.0692
Pt 12.0865 29.3078 20.5112
Pt 10.475 29.3078 22.7902
Pt 13.698 29.3078 25.0692
Pt 9.66927 30.7034 0.000220426
Pt 12.8923 30.7034 2.27922
Pt 11.2808 30.7034 4.55821
Pt 12.0865 32.099 0.000220426
Pt 10.475 32.099 2.27922
Pt 13.698 32.099 4.55821
Pt 9.66927 30.7034 6.83721
Pt 12.8923 30.7034 9.1162
Pt 11.2808 30.7034 11.3952
Pt 12.0865 32.099 6.83721
Pt 10.475 32.099 9.1162
Pt 13.698 32.099 11.3952
Pt 9.66927 30.7034 13.6742
Pt 12.8923 30.7034 15.9532
Pt 11.2808 30.7034 18.2322
Pt 12.0865 32.099 13.6742
Pt 10.475 32.099 15.9532
Pt 13.698 32.099 18.2322
Pt 9.66927 30.7034 20.5112
Pt 12.8923 30.7034 22.7902
Pt 11.2808 30.7034 25.0692
Pt 12.0865 32.099 20.5112
Pt 10.475 32.099 22.7902
Pt 13.698 32.099 25.0692
Pt 9.66927 33.4946 0.000220426
Pt 12.8923 33.4946 2.27922
Pt 11.2808 33.4946 4.55821
Pt 12.0865 34.8902 0.000220426
Pt 10.475 34.8902 2.27922
Pt 13.698 34.8902 4.55821
Pt 9.66927 33.4946 6.83721
Pt 12.8923 33.4946 9.1162
Pt 11.2808 33.4946 11.3952
Pt 12.0865 34.8902 6.83721
Pt 10.475 34.8902 9.1162
Pt 13.698 34.8902 11.3952
Pt 9.66927 33.4946 13.6742
Pt 12.8923 33.4946 15.9532
Pt 11.2808 33.4946 18.2322
Pt 12.0865 34.8902 13.6742
Pt 10.475 34.8902 15.9532
Pt 13.698 34.8902 18.2322
Pt 9.66927 33.4946 20.5112
Pt 12.8923 33.4946 22.7902
Pt 11.2808 33.4946 25.0692
Pt 12.0865 34.8902 20.5112
Pt 10.475 34.8902 22.7902
Pt 13.698 34.8902 25.0692
Pt 9.66927 36.2858 0.000220426
Pt 12.8923 36.2858 2.27922
Pt 11.2808 36.2858 4.55821
Pt 12.0865 37.6814 0.000220426
Pt 10.475 37.6814 2.27922
Pt 13.698 37.6814 4.55821
Pt 9.66927 36.2858 6.83721
Pt 12.8923 36.2858 9.1162
Pt 11.2808 36.2858 11.3952
Pt 12.0865 37.6814 6.83721
Pt 10.475 37.6814 9.1162
Pt 13.698 37.6814 11.3952
Pt 9.66927 36.2858 13.6742