5184
 Atoms. Timestep: 6
Pt 0.000467728 0.000270043 0.000330734
Pt 3.22345 0.000270043 2.27933
Pt 1.61196 0.000270043 4.55832
Pt 2.41771 1.39586 0.000330734
Pt 0.806214 1.39586 2.27933
Pt 4.0292 1.39586 4.55832
Pt 0.000467728 0.000270043 6.83732
Pt 3.22345 0.000270043 9.11631
Pt 1.61196 0.000270043 11.3953
Pt 2.41771 1.39586 6.83732
Pt 0.806214 1.39586 9.11631
Pt 4.0292 1.39586 11.3953
Pt 0.000467728 0.000270043 13.6743
Pt 3.22345 0.000270043 15.9533
Pt 1.61196 0.000270043 18.2323
Pt 2.41771 1.39586 13.6743
Pt 0.806214 1.39586 15.9533
Pt 4.0292 1.39586 18.2323
Pt 0.000467728 0.000270043 20.5113
Pt 3.22345 0.000270043 22.7903
Pt 1.61196 0.000270043 25.0693
Pt 2.41771 1.39586 20.5113
Pt 0.806214 1.39586 22.7903
Pt 4.0292 1.39586 25.0693
Pt 0.000467728 0.000270043 27.3483
Pt 3.22345 0.000270043 29.6273
Pt 1.61196 0.000270043 31.9063
Pt 2.41771 1.39586 27.3483
Pt 0.806214 1.39586 29.6273
Pt 4.0292 1.39586 31.9063
Pt 0.000467728 0.000270043 34.1853
Pt 3.22345 0.000270043 36.4643
Pt 1.61196 0.000270043 38.7433
Pt 2.41771 1.39586 34.1853
Pt 0.806214 1.39586 36.4643
Pt 4.0292 1.39586 38.7433
Pt 0.000467728 2.79146 0.000330734
Pt 3.22345 2.79146 2.27933
Pt 1.61196 2.79146 4.55832
Pt 2.41771 4.18705 0.000330734
Pt 0.806214 4.18705 2.27933
Pt 4.0292 4.18705 4.55832
Pt 0.000467728 2.79146 6.83732
Pt 3.22345 2.79146 9.11631
Pt 1.61196 2.79146 11.3953
Pt 2.41771 4.18705 6.83732
Pt 0.806214 4.18705 9.11631
Pt 4.0292 4.18705 11.3953
Pt 0.000467728 2.79146 13.6743
Pt 3.22345 2.79146 15.9533
Pt 1.61196 2.79146 18.2323
Pt 2.41771 4.18705 13.6743
Pt 0.806214 4.18705 15.9533
Pt 4.0292 4.18705 18.2323
Pt 0.000467728 2.79146 20.5113
Pt 3.22345 2.79146 22.7903
Pt 1.61196 2.79146 25.0693
Pt 2.41771 4.18705 20.5113
Pt 0.806214 4.18705 22.7903
Pt 4.0292 4.18705 25.0693
Pt 0.000467728 2.79146 27.3483
Pt 3.22345 2.79146 29.6273
Pt 1.61196 2.79146 31.9063
Pt 2.41771 4.18705 27.3483
Pt 0.806214 4.18705 29.6273
Pt 4.0292 4.18705 31.9063
Pt 0.000467728 2.79146 34.1853
Pt 3.22345 2.79146 36.4643
Pt 1.61196 2.79146 38.7433
Pt 2.41771 4.18705 34.1853
Pt 0.806214 4.18705 36.4643
Pt 4.0292 4.18705 38.7433
Pt 0.000467728 5.58265 0.000330734
Pt 3.22345 5.58265 2.27933
Pt 1.61196 5.58265 4.55832
Pt 2.41771 6.97824 0.000330734
Pt 0.806214 6.97824 2.27933
Pt 4.0292 6.97824 4.55832
Pt 0.000467728 5.58265 6.83732
Pt 3.22345 5.58265 9.11631
Pt 1.61196 5.58265 11.3953
Pt 2.41771 6.97824 6.83732
Pt 0.806214 6.97824 9.11631
Pt 4.0292 6.97824 11.3953
Pt 0.000467728 5.58265 13.6743
Pt 3.22345 5.58265 15.9533
Pt 1.61196 5.58265 18.2323
Pt 2.41771 6.97824 13.6743
Pt 0.806214 6.97824 15.9533
Pt 4.0292 6.97824 18.2323
Pt 0.000467728 5.58265 20.5113
Pt 3.22345 5.58265 22.7903
Pt 1.61196 5.58265 25.0693
Pt 2.41771 6.97824 20.5113
Pt 0.806214 6.97824 22.7903
Pt 4.0292 6.97824 25.0693
Pt 0.000467728 5.58265 27.3483
Pt 3.22345 5.58265 29.6273
Pt 1.61196 5.58265 31.9063
Pt 2.41771 6.97824 27.3483
Pt 0.806214 6.97824 29.6273
Pt 4.0292 6.97824 31.9063
Pt 0.000467728 5.58265 34.1853
Pt 3.22345 5.58265 36.4643
Pt 1.61196 5.58265 38.7433
Pt 2.41771 6.97824 34.1853
Pt 0.806214 6.97824 36.4643
Pt 4.0292 6.97824 38.7433
Pt 0.000467728 8.37383 0.000330734
Pt 3.22345 8.37383 2.27933
Pt 1.61196 8.37383 4.55832
Pt 2.41771 9.76943 0.000330734
Pt 0.806214 9.76943 2.27933
Pt 4.0292 9.76943 4.55832
Pt 0.000467728 8.37383 6.83732
Pt 3.22345 8.37383 9.11631
Pt 1.61196 8.37383 11.3953
Pt 2.41771 9.76943 6.83732
Pt 0.806214 9.76943 9.11631
Pt 4.0292 9.76943 11.3953
Pt 0.000467728 8.37383 13.6743
Pt 3.22345 8.37383 15.9533
Pt 1.61196 8.37383 18.2323
Pt 2.41771 9.76943 13.6743
Pt 0.806214 9.76943 15.9533
Pt 4.0292 9.76943 18.2323
Pt 0.000467728 8.37383 20.5113
Pt 3.22345 8.37383 22.7903
Pt 1.61196 8.37383 25.0693
Pt 2.41771 9.76943 20.5113
Pt 0.806214 9.76943 22.7903
Pt 4.0292 9.76943 25.0693
Pt 0.000467728 8.37383 27.3483
Pt 3.22345 8.37383 29.6273
Pt 1.61196 8.37383 31.9063
Pt 2.41771 9.76943 27.3483
Pt 0.806214 9.76943 29.6273
Pt 4.0292 9.76943 31.9063
Pt 0.000467728 8.37383 34.1853
Pt 3.22345 8.37383 36.4643
Pt 1.61196 8.37383 38.7433
Pt 2.41771 9.76943 34.1853
Pt 0.806214 9.76943 36.4643
Pt 4.0292 9.76943 38.7433
Pt 0.000467728 11.165 0.000330734
Pt 3.22345 11.165 2.27933
Pt 1.61196 11.165 4.55832
Pt 2.41771 12.5606 0.000330734
Pt 0.806214 12.5606 2.27933
Pt 4.0292 12.5606 4.55832
Pt 0.000467728 11.165 6.83732
Pt 3.22345 11.165 9.11631
Pt 1.61196 11.165 11.3953
Pt 2.41771 12.5606 6.83732
Pt 0.806214 12.5606 9.11631
Pt 4.0292 12.5606 11.3953
Pt 0.000467728 11.165 13.6743
Pt 3.22345 11.165 15.9533
Pt 1.61196 11.165 18.2323
Pt 2.41771 12.5606 13.6743
Pt 0.806214 12.5606 15.9533
Pt 4.0292 12.5606 18.2323
Pt 0.000467728 11.165 20.5113
Pt 3.22345 11.165 22.7903
Pt 1.61196 11.165 25.0693
Pt 2.41771 12.5606 20.5113
Pt 0.806214 12.5606 22.7903
Pt 4.0292 12.5606 25.0693
Pt 0.000467728 11.165 27.3483
Pt 3.22345 11.165 29.6273
Pt 1.61196 11.165 31.9063
Pt 2.41771 12.5606 27.3483
Pt 0.806214 12.5606 29.6273
Pt 4.0292 12.5606 31.9063
Pt 0.000467728 11.165 34.1853
Pt 3.22345 11.165 36.4643
Pt 1.61196 11.165 38.7433
Pt 2.41771 12.5606 34.1853
Pt 0.806214 12.5606 36.4643
Pt 4.0292 12.5606 38.7433
Pt 0.000467728 13.9562 0.000330734
Pt 3.22345 13.9562 2.27933
Pt 1.61196 13.9562 4.55832
Pt 2.41771 15.3518 0.000330734
Pt 0.806214 15.3518 2.27933
Pt 4.0292 15.3518 4.55832
Pt 0.000467728 13.9562 6.83732
Pt 3.22345 13.9562 9.11631
Pt 1.61196 13.9562 11.3953
Pt 2.41771 15.3518 6.83732
Pt 0.806214 15.3518 9.11631
Pt 4.0292 15.3518 11.3953
Pt 0.000467728 13.9562 13.6743
Pt 3.22345 13.9562 15.9533
Pt 1.61196 13.9562 18.2323
Pt 2.41771 15.3518 13.6743
Pt 0.806214 15.3518 15.9533
Pt 4.0292 15.3518 18.2323
Pt 0.000467728 13.9562 20.5113
Pt 3.22345 13.9562 22.7903
Pt 1.61196 13.9562 25.0693
Pt 2.41771 15.3518 20.5113
Pt 0.806214 15.3518 22.7903
Pt 4.0292 15.3518 25.0693
Pt 0.000467728 13.9562 27.3483
Pt 3.22345 13.9562 29.6273
Pt 1.61196 13.9562 31.9063
Pt 2.41771 15.3518 27.3483
Pt 0.806214 15.3518 29.6273
Pt 4.0292 15.3518 31.9063
Pt 0.000467728 13.9562 34.1853
Pt 3.22345 13.9562 36.4643
Pt 1.61196 13.9562 38.7433
Pt 2.41771 15.3518 34.1853
Pt 0.806214 15.3518 36.4643
Pt 4.0292 15.3518 38.7433
Pt 0.000467728 16.7474 0.000330734
Pt 3.22345 16.7474 2.27933
Pt 1.61196 16.7474 4.55832
Pt 2.41771 18.143 0.000330734
Pt 0.806214 18.143 2.27933
Pt 4.0292 18.143 4.55832
Pt 0.000467728 16.7474 6.83732
Pt 3.22345 16.7474 9.11631
Pt 1.61196 16.7474 11.3953
Pt 2.41771 18.143 6.83732
Pt 0.806214 18.143 9.11631
Pt 4.0292 18.143 11.3953
Pt 0.000467728 16.7474 13.6743
Pt 3.22345 16.7474 15.9533
Pt 1.61196 16.7474 18.2323
Pt 2.41771 18.143 13.6743
Pt 0.806214 18.143 15.9533
Pt 4.0292 18.143 18.2323
Pt 0.000467728 16.7474 20.5113
Pt 3.22345 16.7474 22.7903
Pt 1.61196 16.7474 25.0693
Pt 2.41771 18.143 20.5113
Pt 0.806214 18.143 22.7903
Pt 4.0292 18.143 25.0693
Pt 0.000467728 16.7474 27.3483
Pt 3.22345 16.7474 29.6273
Pt 1.61196 16.7474 31.9063
Pt 2.41771 18.143 27.3483
Pt 0.806214 18.143 29.6273
Pt 4.0292 18.143 31.9063
Pt 0.000467728 16.7474 34.1853
Pt 3.22345 16.7474 36.4643
Pt 1.61196 16.7474 38.7433
Pt 2.41771 18.143 34.1853
Pt 0.806214 18.143 36.4643
Pt 4.0292 18.143 38.7433
Pt 0.000467728 19.5386 0.000330734
Pt 3.22345 19.5386 2.27933
Pt 1.61196 19.5386 4.55832
Pt 2.41771 20.9342 0.000330734
Pt 0.806214 20.9342 2.27933
Pt 4.0292 20.9342 4.55832
Pt 0.000467728 19.5386 6.83732
Pt 3.22345 19.5386 9.11631
Pt 1.61196 19.5386 11.3953
Pt 2.41771 20.9342 6.83732
Pt 0.806214 20.9342 9.11631
Pt 4.0292 20.9342 11.3953
Pt 0.000467728 19.5386 13.6743
Pt 3.22345 19.5386 15.9533
Pt 1.61196 19.5386 18.2323
Pt 2.41771 20.9342 13.6743
Pt 0.806214 20.9342 15.9533
Pt 4.0292 20.9342 18.2323
Pt 0.000467728 19.5386 20.5113
Pt 3.22345 19.5386 22.7903
Pt 1.61196 19.5386 25.0693
Pt 2.41771 20.9342 20.5113
Pt 0.806214 20.9342 22.7903
Pt 4.0292 20.9342 25.0693
Pt 0.000467728 19.5386 27.3483
Pt 3.22345 19.5386 29.6273
Pt 1.61196 19.5386 31.9063
Pt 2.41771 20.9342 27.3483
Pt 0.806214 20.9342 29.6273
Pt 4.0292 20.9342 31.9063
Pt 0.000467728 19.5386 34.1853
Pt 3.22345 19.5386 36.4643
Pt 1.61196 19.5386 38.7433
Pt 2.41771 20.9342 34.1853
Pt 0.806214 20.9342 36.4643
Pt 4.0292 20.9342 38.7433
Pt 0.000467728 22.3298 0.000330734
Pt 3.22345 22.3298 2.27933
Pt 1.61196 22.3298 4.55832
Pt 2.41771 23.7254 0.000330734
Pt 0.806214 23.7254 2.27933
Pt 4.0292 23.7254 4.55832
Pt 0.000467728 22.3298 6.83732
Pt 3.22345 22.3298 9.11631
Pt 1.61196 22.3298 11.3953
Pt 2.41771 23.7254 6.83732
Pt 0.806214 23.7254 9.11631
Pt 4.0292 23.7254 11.3953
Pt 0.000467728 22.3298 13.6743
Pt 3.22345 22.3298 15.9533
Pt 1.61196 22.3298 18.2323
Pt 2.41771 23.7254 13.6743
Pt 0.806214 23.7254 15.9533
Pt 4.0292 23.7254 18.2323
Pt 0.000467728 22.3298 20.5113
Pt 3.22345 22.3298 22.7903
Pt 1.61196 22.3298 25.0693
Pt 2.41771 23.7254 20.5113
Pt 0.806214 23.7254 22.7903
Pt 4.0292 23.7254 25.0693
Pt 0.000467728 22.3298 27.3483
Pt 3.22345 22.3298 29.6273
Pt 1.61196 22.3298 31.9063
Pt 2.41771 23.7254 27.3483
Pt 0.806214 23.7254 29.6273
Pt 4.0292 23.7254 31.9063
Pt 0.000467728 22.3298 34.1853
Pt 3.22345 22.3298 36.4643
Pt 1.61196 22.3298 38.7433
Pt 2.41771 23.7254 34.1853
Pt 0.806214 23.7254 36.4643
Pt 4.0292 23.7254 38.7433
Pt 0.000467728 25.121 0.000330734
Pt 3.22345 25.121 2.27933
Pt 1.61196 25.121 4.55832
Pt 2.41771 26.5166 0.000330734
Pt 0.806214 26.5166 2.27933
Pt 4.0292 26.5166 4.55832
Pt 0.000467728 25.121 6.83732
Pt 3.22345 25.121 9.11631
Pt 1.61196 25.121 11.3953
Pt 2.41771 26.5166 6.83732
Pt 0.806214 26.5166 9.11631
Pt 4.0292 26.5166 11.3953
Pt 0.000467728 25.121 13.6743
Pt 3.22345 25.121 15.9533
Pt 1.61196 25.121 18.2323
Pt 2.41771 26.5166 13.6743
Pt 0.806214 26.5166 15.9533
Pt 4.0292 26.5166 18.2323
Pt 0.000467728 25.121 20.5113
Pt 3.22345 25.121 22.7903
Pt 1.61196 25.121 25.0693
Pt 2.41771 26.5166 20.5113
Pt 0.806214 26.5166 22.7903
Pt 4.0292 26.5166 25.0693
Pt 0.000467728 25.121 27.3483
Pt 3.22345 25.121 29.6273
Pt 1.61196 25.121 31.9063
Pt 2.41771 26.5166 27.3483
Pt 0.806214 26.5166 29.6273
Pt 4.0292 26.5166 31.9063
Pt 0.000467728 25.121 34.1853
Pt 3.22345 25.121 36.4643
Pt 1.61196 25.121 38.7433
Pt 2.41771 26.5166 34.1853
Pt 0.806214 26.5166 36.4643
Pt 4.0292 26.5166 38.7433
Pt 0.000467728 27.9122 0.000330734
Pt 3.22345 27.9122 2.27933
Pt 1.61196 27.9122 4.55832
Pt 2.41771 29.3077 0.000330734
Pt 0.806214 29.3077 2.27933
Pt 4.0292 29.3077 4.55832
Pt 0.000467728 27.9122 6.83732
Pt 3.22345 27.9122 9.11631
Pt 1.61196 27.9122 11.3953
Pt 2.41771 29.3077 6.83732
Pt 0.806214 29.3077 9.11631
Pt 4.0292 29.3077 11.3953
Pt 0.000467728 27.9122 13.6743
Pt 3.22345 27.9122 15.9533
Pt 1.61196 27.9122 18.2323
Pt 2.41771 29.3077 13.6743
Pt 0.806214 29.3077 15.9533
Pt 4.0292 29.3077 18.2323
Pt 0.000467728 27.9122 20.5113
Pt 3.22345 27.9122 22.7903
Pt 1.61196 27.9122 25.0693
Pt 2.41771 29.3077 20.5113
Pt 0.806214 29.3077 22.7903
Pt 4.0292 29.3077 25.0693
Pt 0.000467728 27.9122 27.3483
Pt 3.22345 27.9122 29.6273
Pt 1.61196 27.9122 31.9063
Pt 2.41771 29.3077 27.3483
Pt 0.806214 29.3077 29.6273
Pt 4.0292 29.3077 31.9063
Pt 0.000467728 27.9122 34.1853
Pt 3.22345 27.9122 36.4643
Pt 1.61196 27.9122 38.7433
Pt 2.41771 29.3077 34.1853
Pt 0.806214 29.3077 36.4643
Pt 4.0292 29.3077 38.7433
Pt 0.000467728 30.7033 0.000330734
Pt 3.22345 30.7033 2.27933
Pt 1.61196 30.7033 4.55832
Pt 2.41771 32.0989 0.000330734
Pt 0.806214 32.0989 2.27933
Pt 4.0292 32.0989 4.55832
Pt 0.000467728 30.7033 6.83732
Pt 3.22345 30.7033 9.11631
Pt 1.61196 30.7033 11.3953
Pt 2.41771 32.0989 6.83732
Pt 0.806214 32.0989 9.11631
Pt 4.0292 32.0989 11.3953
Pt 0.000467728 30.7033 13.6743
Pt 3.22345 30.7033 15.9533
Pt 1.61196 30.7033 18.2323
Pt 2.41771 32.0989 13.6743
Pt 0.806214 32.0989 15.9533
Pt 4.0292 32.0989 18.2323
Pt 0.000467728 30.7033 20.5113
Pt 3.22345 30.7033 22.7903
Pt 1.61196 30.7033 25.0693
Pt 2.41771 32.0989 20.5113
Pt 0.806214 32.0989 22.7903
Pt 4.0292 32.0989 25.0693
Pt 0.000467728 30.7033 27.3483
Pt 3.22345 30.7033 29.6273
Pt 1.61196 30.7033 31.9063
Pt 2.41771 32.0989 27.3483
Pt 0.806214 32.0989 29.6273
Pt 4.0292 32.0989 31.9063
Pt 0.000467728 30.7033 34.1853
Pt 3.22345 30.7033 36.4643
Pt 1.61196 30.7033 38.7433
Pt 2.41771 32.0989 34.1853
Pt 0.806214 32.0989 36.4643
Pt 4.0292 32.0989 38.7433
Pt 4.83495 0.000270043 0.000330734
Pt 8.05793 0.000270043 2.27933
Pt 6.44644 0.000270043 4.55832
Pt 7.25219 1.39586 0.000330734
Pt 5.64069 1.39586 2.27933
Pt 8.86368 1.39586 4.55832
Pt 4.83495 0.000270043 6.83732
Pt 8.05793 0.000270043 9.11631
Pt 6.44644 0.000270043 11.3953
Pt 7.25219 1.39586 6.83732
Pt 5.64069 1.39586 9.11631
Pt 8.86368 1.39586 11.3953
Pt 4.83495 0.000270043 13.6743
Pt 8.05793 0.000270043 15.9533
Pt 6.44644 0.000270043 18.2323
Pt 7.25219 1.39586 13.6743
Pt 5.64069 1.39586 15.9533
Pt 8.86368 1.39586 18.2323
Pt 4.83495 0.000270043 20.5113
Pt 8.05793 0.000270043 22.7903
Pt 6.44644 0.000270043 25.0693
Pt 7.25219 1.39586 20.5113
Pt 5.64069 1.39586 22.7903
Pt 8.86368 1.39586 25.0693
Pt 4.83495 0.000270043 27.3483
Pt 8.05793 0.000270043 29.6273
Pt 6.44644 0.000270043 31.9063
Pt 7.25219 1.39586 27.3483
Pt 5.64069 1.39586 29.6273
Pt 8.86368 1.39586 31.9063
Pt 4.83495 0.000270043 34.1853
Pt 8.05793 0.000270043 36.4643
Pt 6.44644 0.000270043 38.7433
Pt 7.25219 1.39586 34.1853
Pt 5.64069 1.39586 36.4643
Pt 8.86368 1.39586 38.7433
Pt 4.83495 2.79146 0.000330734
Pt 8.05793 2.79146 2.27933
Pt 6.44644 2.79146 4.55832
Pt 7.25219 4.18705 0.000330734
Pt 5.64069 4.18705 2.27933
Pt 8.86368 4.18705 4.55832
Pt 4.83495 2.79146 6.83732
Pt 8.05793 2.79146 9.11631
Pt 6.44644 2.79146 11.3953
Pt 7.25219 4.18705 6.83732
Pt 5.64069 4.18705 9.11631
Pt 8.86368 4.18705 11.3953
Pt 4.83495 2.79146 13.6743
Pt 8.05793 2.79146 15.9533
Pt 6.44644 2.79146 18.2323
Pt 7.25219 4.18705 13.6743
Pt 5.64069 4.18705 15.9533
Pt 8.86368 4.18705 18.2323
Pt 4.83495 2.79146 20.5113
Pt 8.05793 2.79146 22.7903
Pt 6.44644 2.79146 25.0693
Pt 7.25219 4.18705 20.5113
Pt 5.64069 4.18705 22.7903
Pt 8.86368 4.18705 25.0693
Pt 4.83495 2.79146 27.3483
Pt 8.05793 2.79146 29.6273
Pt 6.44644 2.79146 31.9063
Pt 7.25219 4.18705 27.3483
Pt 5.64069 4.18705 29.6273
Pt 8.86368 4.18705 31.9063
Pt 4.83495 2.79146 34.1853
Pt 8.05793 2.79146 36.4643
Pt 6.44644 2.79146 38.7433
Pt 7.25219 4.18705 34.1853
Pt 5.64069 4.18705 36.4643
Pt 8.86368 4.18705 38.7433
Pt 4.83495 5.58265 0.000330734
Pt 8.05793 5.58265 2.27933
Pt 6.44644 5.58265 4.55832
Pt 7.25219 6.97824 0.000330734
Pt 5.64069 6.97824 2.27933
Pt 8.86368 6.97824 4.55832
Pt 4.83495 5.58265 6.83732
Pt 8.05793 5.58265 9.11631
Pt 6.44644 5.58265 11.3953
Pt 7.25219 6.97824 6.83732
Pt 5.64069 6.97824 9.11631
Pt 8.86368 6.97824 11.3953
Pt 4.83495 5.58265 13.6743
Pt 8.05793 5.58265 15.9533
Pt 6.44644 5.58265 18.2323
Pt 7.25219 6.97824 13.6743
Pt 5.64069 6.97824 15.9533
Pt 8.86368 6.97824 18.2323
Pt 4.83495 5.58265 20.5113
Pt 8.05793 5.58265 22.7903
Pt 6.44644 5.58265 25.0693
Pt 7.25219 6.97824 20.5113
Pt 5.64069 6.97824 22.7903
Pt 8.86368 6.97824 25.0693
Pt 4.83495 5.58265 27.3483
Pt 8.05793 5.58265 29.6273
Pt 6.44644 5.58265 31.9063
Pt 7.25219 6.97824 27.3483
Pt 5.64069 6.97824 29.6273
Pt 8.86368 6.97824 31.9063
Pt 4.83495 5.58265 34.1853
Pt 8.05793 5.58265 36.4643
Pt 6.44644 5.58265 38.7433
Pt 7.25219 6.97824 34.1853
Pt 5.64069 6.97824 36.4643
Pt 8.86368 6.97824 38.7433
Pt 4.83495 8.37383 0.000330734
Pt 8.05793 8.37383 2.27933
Pt 6.44644 8.37383 4.55832
Pt 7.25219 9.76943 0.000330734
Pt 5.64069 9.76943 2.27933
Pt 8.86368 9.76943 4.55832
Pt 4.83495 8.37383 6.83732
Pt 8.05793 8.37383 9.11631
Pt 6.44644 8.37383 11.3953
Pt 7.25219 9.76943 6.83732
Pt 5.64069 9.76943 9.11631
Pt 8.86368 9.76943 11.3953
Pt 4.83495 8.37383 13.6743
Pt 8.05793 8.37383 15.9533
Pt 6.44644 8.37383 18.2323
Pt 7.25219 9.76943 13.6743
Pt 5.64069 9.76943 15.9533
Pt 8.86368 9.76943 18.2323
Pt 4.83495 8.37383 20.5113
Pt 8.05793 8.37383 22.7903
Pt 6.44644 8.37383 25.0693
Pt 7.25219 9.76943 20.5113
Pt 5.64069 9.76943 22.7903
Pt 8.86368 9.76943 25.0693
Pt 4.83495 8.37383 27.3483
Pt 8.05793 8.37383 29.6273
Pt 6.44644 8.37383 31.9063
Pt 7.25219 9.76943 27.3483
Pt 5.64069 9.76943 29.6273
Pt 8.86368 9.76943 31.9063
Pt 4.83495 8.37383 34.1853
Pt 8.05793 8.37383 36.4643
Pt 6.44644 8.37383 38.7433
Pt 7.25219 9.76943 34.1853
Pt 5.64069 9.76943 36.4643
Pt 8.86368 9.76943 38.7433
Pt 4.83495 11.165 0.000330734
Pt 8.05793 11.165 2.27933
Pt 6.44644 11.165 4.55832
Pt 7.25219 12.5606 0.000330734
Pt 5.64069 12.5606 2.27933
Pt 8.86368 12.5606 4.55832
Pt 4.83495 11.165 6.83732
Pt 8.05793 11.165 9.11631
Pt 6.44644 11.165 11.3953
Pt 7.25219 12.5606 6.83732
Pt 5.64069 12.5606 9.11631
Pt 8.86368 12.5606 11.3953
Pt 4.83495 11.165 13.6743
Pt 8.05793 11.165 15.9533
Pt 6.44644 11.165 18.2323
Pt 7.25219 12.5606 13.6743
Pt 5.64069 12.5606 15.9533
Pt 8.86368 12.5606 18.2323
Pt 4.83495 11.165 20.5113
Pt 8.05793 11.165 22.7903
Pt 6.44644 11.165 25.0693
Pt 7.25219 12.5606 20.5113
Pt 5.64069 12.5606 22.7903
Pt 8.86368 12.5606 25.0693
Pt 4.83495 11.165 27.3483
Pt 8.05793 11.165 29.6273
Pt 6.44644 11.165 31.9063
Pt 7.25219 12.5606 27.3483
Pt 5.64069 12.5606 29.6273
Pt 8.86368 12.5606 31.9063
Pt 4.83495 11.165 34.1853
Pt 8.05793 11.165 36.4643
Pt 6.44644 11.165 38.7433
Pt 7.25219 12.5606 34.1853
Pt 5.64069 12.5606 36.4643
Pt 8.86368 12.5606 38.7433
Pt 4.83495 13.9562 0.000330734
Pt 8.05793 13.9562 2.27933
Pt 6.44644 13.9562 4.55832
Pt 7.25219 15.3518 0.000330734
Pt 5.64069 15.3518 2.27933
Pt 8.86368 15.3518 4.55832
Pt 4.83495 13.9562 6.83732
Pt 8.05793 13.9562 9.11631
Pt 6.44644 13.9562 11.3953
Pt 7.25219 15.3518 6.83732
Pt 5.64069 15.3518 9.11631
Pt 8.86368 15.3518 11.3953
Pt 4.83495 13.9562 13.6743
Pt 8.05793 13.9562 15.9533
Pt 6.44644 13.9562 18.2323
Pt 7.25219 15.3518 13.6743
Pt 5.64069 15.3518 15.9533
Pt 8.86368 15.3518 18.2323
Pt 4.83495 13.9562 20.5113
Pt 8.05793 13.9562 22.7903
Pt 6.44644 13.9562 25.0693
Pt 7.25219 15.3518 20.5113
Pt 5.64069 15.3518 22.7903
Pt 8.86368 15.3518 25.0693
Pt 4.83495 13.9562 27.3483
Pt 8.05793 13.9562 29.6273
Pt 6.44644 13.9562 31.9063
Pt 7.25219 15.3518 27.3483
Pt 5.64069 15.3518 29.6273
Pt 8.86368 15.3518 31.9063
Pt 4.83495 13.9562 34.1853
Pt 8.05793 13.9562 36.4643
Pt 6.44644 13.9562 38.7433
Pt 7.25219 15.3518 34.1853
Pt 5.64069 15.3518 36.4643
Pt 8.86368 15.3518 38.7433
Pt 4.83495 16.7474 0.000330734
Pt 8.05793 16.7474 2.27933
Pt 6.44644 16.7474 4.55832
Pt 7.25219 18.143 0.000330734
Pt 5.64069 18.143 2.27933
Pt 8.86368 18.143 4.55832
Pt 4.83495 16.7474 6.83732
Pt 8.05793 16.7474 9.11631
Pt 6.44644 16.7474 11.3953
Pt 7.25219 18.143 6.83732
Pt 5.64069 18.143 9.11631
Pt 8.86368 18.143 11.3953
Pt 4.83495 16.7474 13.6743
Pt 8.05793 16.7474 15.9533
Pt 6.44644 16.7474 18.2323
Pt 7.25219 18.143 13.6743
Pt 5.64069 18.143 15.9533
Pt 8.86368 18.143 18.2323
Pt 4.83495 16.7474 20.5113
Pt 8.05793 16.7474 22.7903
Pt 6.44644 16.7474 25.0693
Pt 7.25219 18.143 20.5113
Pt 5.64069 18.143 22.7903
Pt 8.86368 18.143 25.0693
Pt 4.83495 16.7474 27.3483
Pt 8.05793 16.7474 29.6273
Pt 6.44644 16.7474 31.9063
Pt 7.25219 18.143 27.3483
Pt 5.64069 18.143 29.6273
Pt 8.86368 18.143 31.9063
Pt 4.83495 16.7474 34.1853
Pt 8.05793 16.7474 36.4643
Pt 6.44644 16.7474 38.7433
Pt 7.25219 18.143 34.1853
Pt 5.64069 18.143 36.4643
Pt 8.86368 18.143 38.7433
Pt 4.83495 19.5386 0.000330734
Pt 8.05793 19.5386 2.27933
Pt 6.44644 19.5386 4.55832
Pt 7.25219 20.9342 0.000330734
Pt 5.64069 20.9342 2.27933
Pt 8.86368 20.9342 4.55832
Pt 4.83495 19.5386 6.83732
Pt 8.05793 19.5386 9.11631
Pt 6.44644 19.5386 11.3953
Pt 7.25219 20.9342 6.83732
Pt 5.64069 20.9342 9.11631
Pt 8.86368 20.9342 11.3953
Pt 4.83495 19.5386 13.6743
Pt 8.05793 19.5386 15.9533
Pt 6.44644 19.5386 18.2323
Pt 7.25219 20.9342 13.6743
Pt 5.64069 20.9342 15.9533
Pt 8.86368 20.9342 18.2323
Pt 4.83495 19.5386 20.5113
Pt 8.05793 19.5386 22.7903
Pt 6.44644 19.5386 25.0693
Pt 7.25219 20.9342 20.5113
Pt 5.64069 20.9342 22.7903
Pt 8.86368 20.9342 25.0693
Pt 4.83495 19.5386 27.3483
Pt 8.05793 19.5386 29.6273
Pt 6.44644 19.5386 31.9063
Pt 7.25219 20.9342 27.3483
Pt 5.64069 20.9342 29.6273
Pt 8.86368 20.9342 31.9063
Pt 4.83495 19.5386 34.1853
Pt 8.05793 19.5386 36.4643
Pt 6.44644 19.5386 38.7433
Pt 7.25219 20.9342 34.1853
Pt 5.64069 20.9342 36.4643
Pt 8.86368 20.9342 38.7433
Pt 4.83495 22.3298 0.000330734
Pt 8.05793 22.3298 2.27933
Pt 6.44644 22.3298 4.55832
Pt 7.25219 23.7254 0.000330734
Pt 5.64069 23.7254 2.27933
Pt 8.86368 23.7254 4.55832
Pt 4.83495 22.3298 6.83732
Pt 8.05793 22.3298 9.11631
Pt 6.44644 22.3298 11.3953
Pt 7.25219 23.7254 6.83732
Pt 5.64069 23.7254 9.11631
Pt 8.86368 23.7254 11.3953
Pt 4.83495 22.3298 13.6743
Pt 8.05793 22.3298 15.9533
Pt 6.44644 22.3298 18.2323
Pt 7.25219 23.7254 13.6743
Pt 5.64069 23.7254 15.9533
Pt 8.86368 23.7254 18.2323
Pt 4.83495 22.3298 20.5113
Pt 8.05793 22.3298 22.7903
Pt 6.44644 22.3298 25.0693
Pt 7.25219 23.7254 20.5113
Pt 5.64069 23.7254 22.7903
Pt 8.86368 23.7254 25.0693
Pt 4.83495 22.3298 27.3483
Pt 8.05793 22.3298 29.6273
Pt 6.44644 22.3298 31.9063
Pt 7.25219 23.7254 27.3483
Pt 5.64069 23.7254 29.6273
Pt 8.86368 23.7254 31.9063
Pt 4.83495 22.3298 34.1853
Pt 8.05793 22.3298 36.4643
Pt 6.44644 22.3298 38.7433
Pt 7.25219 23.7254 34.1853
Pt 5.64069 23.7254 36.4643
Pt 8.86368 23.7254 38.7433
Pt 4.83495 25.121 0.000330734
Pt 8.05793 25.121 2.27933
Pt 6.44644 25.121 4.55832
Pt 7.25219 26.5166 0.000330734
Pt 5.64069 26.5166 2.27933
Pt 8.86368 26.5166 4.55832
Pt 4.83495 25.121 6.83732
Pt 8.05793 25.121 9.11631
Pt 6.44644 25.121 11.3953
Pt 7.25219 26.5166 6.83732
Pt 5.64069 26.5166 9.11631
Pt 8.86368 26.5166 11.3953
Pt 4.83495 25.121 13.6743
Pt 8.05793 25.121 15.9533
Pt 6.44644 25.121 18.2323
Pt 7.25219 26.5166 13.6743
Pt 5.64069 26.5166 15.9533
Pt 8.86368 26.5166 18.2323
Pt 4.83495 25.121 20.5113
Pt 8.05793 25.121 22.7903
Pt 6.44644 25.121 25.0693
Pt 7.25219 26.5166 20.5113
Pt 5.64069 26.5166 22.7903
Pt 8.86368 26.5166 25.0693
Pt 4.83495 25.121 27.3483
Pt 8.05793 25.121 29.6273
Pt 6.44644 25.121 31.9063
Pt 7.25219 26.5166 27.3483
Pt 5.64069 26.5166 29.6273
Pt 8.86368 26.5166 31.9063
Pt 4.83495 25.121 34.1853
Pt 8.05793 25.121 36.4643
Pt 6.44644 25.121 38.7433
Pt 7.25219 26.5166 34.1853
Pt 5.64069 26.5166 36.4643
Pt 8.86368 26.5166 38.7433
Pt 4.83495 27.9122 0.000330734
Pt 8.05793 27.9122 2.27933
Pt 6.44644 27.9122 4.55832
Pt 7.25219 29.3077 0.000330734
Pt 5.64069 29.3077 2.27933
Pt 8.86368 29.3077 4.55832
Pt 4.83495 27.9122 6.83732
Pt 8.05793 27.9122 9.11631
Pt 6.44644 27.9122 11.3953
Pt 7.25219 29.3077 6.83732
Pt 5.64069 29.3077 9.11631
Pt 8.86368 29.3077 11.3953
Pt 4.83495 27.9122 13.6743
Pt 8.05793 27.9122 15.9533
Pt 6.44644 27.9122 18.2323
Pt 7.25219 29.3077 13.6743
Pt 5.64069 29.3077 15.9533
Pt 8.86368 29.3077 18.2323
Pt 4.83495 27.9122 20.5113
Pt 8.05793 27.9122 22.7903
Pt 6.44644 27.9122 25.0693
Pt 7.25219 29.3077 20.5113
Pt 5.64069 29.3077 22.7903
Pt 8.86368 29.3077 25.0693
Pt 4.83495 27.9122 27.3483
Pt 8.05793 27.9122 29.6273
Pt 6.44644 27.9122 31.9063
Pt 7.25219 29.3077 27.3483
Pt 5.64069 29.3077 29.6273
Pt 8.86368 29.3077 31.9063
Pt 4.83495 27.9122 34.1853
Pt 8.05793 27.9122 36.4643
Pt 6.44644 27.9122 38.7433
Pt 7.25219 29.3077 34.1853
Pt 5.64069 29.3077 36.4643
Pt 8.86368 29.3077 38.7433
Pt 4.83495 30.7033 0.000330734
Pt 8.05793 30.7033 2.27933
Pt 6.44644 30.7033 4.55832
Pt 7.25219 32.0989 0.000330734
Pt 5.64069 32.0989 2.27933
Pt 8.86368 32.0989 4.55832
Pt 4.83495 30.7033 6.83732
Pt 8.05793 30.7033 9.11631
Pt 6.44644 30.7033 11.3953
Pt 7.25219 32.0989 6.83732
Pt 5.64069 32.0989 9.11631
Pt 8.86368 32.0989 11.3953
Pt 4.83495 30.7033 13.6743
Pt 8.05793 30.7033 15.9533
Pt 6.44644 30.7033 18.2323
Pt 7.25219 32.0989 13.6743
Pt 5.64069 32.0989 15.9533
Pt 8.86368 32.0989 18.2323
Pt 4.83495 30.7033 20.5113
Pt 8.05793 30.7033 22.7903
Pt 6.44644 30.7033 25.0693
Pt 7.25219 32.0989 20.5113
Pt 5.64069 32.0989 22.7903
Pt 8.86368 32.0989 25.0693
Pt 4.83495 30.7033 27.3483
Pt 8.05793 30.7033 29.6273
Pt 6.44644 30.7033 31.9063
Pt 7.25219 32.0989 27.3483
Pt 5.64069 32.0989 29.6273
Pt 8.86368 32.0989 31.9063
Pt 4.83495 30.7033 34.1853
Pt 8.05793 30.7033 36.4643
Pt 6.44644 30.7033 38.7433
Pt 7.25219 32.0989 34.1853
Pt 5.64069 32.0989 36.4643
Pt 8.86368 32.0989 38.7433
Pt 9.66943 0.000270043 0.000330734
Pt 12.8924 0.000270043 2.27933
Pt 11.2809 0.000270043 4.55832
Pt 12.0867 1.39586 0.000330734
Pt 10.4752 1.39586 2.27933
Pt 13.6982 1.39586 4.55832
Pt 9.66943 0.000270043 6.83732
Pt 12.8924 0.000270043 9.11631
Pt 11.2809 0.000270043 11.3953
Pt 12.0867 1.39586 6.83732
Pt 10.4752 1.39586 9.11631
Pt 13.6982 1.39586 11.3953
Pt 9.66943 0.000270043 13.6743
Pt 12.8924 0.000270043 15.9533
Pt 11.2809 0.000270043 18.2323
Pt 12.0867 1.39586 13.6743
Pt 10.4752 1.39586 15.9533
Pt 13.6982 1.39586 18.2323
Pt 9.66943 0.000270043 20.5113
Pt 12.8924 0.000270043 22.7903
Pt 11.2809 0.000270043 25.0693
Pt 12.0867 1.39586 20.5113
Pt 10.4752 1.39586 22.7903
Pt 13.6982 1.39586 25.0693
Pt 9.66943 0.000270043 27.3483
Pt 12.8924 0.000270043 29.6273
Pt 11.2809 0.000270043 31.9063
Pt 12.0867 1.39586 27.3483
Pt 10.4752 1.39586 29.6273
Pt 13.6982 1.39586 31.9063
Pt 9.66943 0.000270043 34.1853
Pt 12.8924 0.000270043 36.4643
Pt 11.2809 0.000270043 38.7433
Pt 12.0867 1.39586 34.1853
Pt 10.4752 1.39586 36.4643
Pt 13.6982 1.39586 38.7433
Pt 9.66943 2.79146 0.000330734
Pt 12.8924 2.79146 2.27933
Pt 11.2809 2.79146 4.55832
Pt 12.0867 4.18705 0.000330734
Pt 10.4752 4.18705 2.27933
Pt 13.6982 4.18705 4.55832
Pt 9.66943 2.79146 6.83732
Pt 12.8924 2.79146 9.11631
Pt 11.2809 2.79146 11.3953
Pt 12.0867 4.18705 6.83732
Pt 10.4752 4.18705 9.11631
Pt 13.6982 4.18705 11.3953
Pt 9.66943 2.79146 13.6743
Pt 12.8924 2.79146 15.9533
Pt 11.2809 2.79146 18.2323
Pt 12.0867 4.18705 13.6743
Pt 10.4752 4.18705 15.9533
Pt 13.6982 4.18705 18.2323
Pt 9.66943 2.79146 20.5113
Pt 12.8924 2.79146 22.7903
Pt 11.2809 2.79146 25.0693
Pt 12.0867 4.18705 20.5113
Pt 10.4752 4.18705 22.7903
Pt 13.6982 4.18705 25.0693
Pt 9.66943 2.79146 27.3483
Pt 12.8924 2.79146 29.6273
Pt 11.2809 2.79146 31.9063
Pt 12.0867 4.18705 27.3483
Pt 10.4752 4.18705 29.6273
Pt 13.6982 4.18705 31.9063
Pt 9.66943 2.79146 34.1853
Pt 12.8924 2.79146 36.4643
Pt 11.2809 2.79146 38.7433
Pt 12.0867 4.18705 34.1853
Pt 10.4752 4.18705 36.4643
Pt 13.6982 4.18705 38.7433
Pt 9.66943 5.58265 0.000330734
Pt 12.8924 5.58265 2.27933
Pt 11.2809 5.58265 4.55832
Pt 12.0867 6.97824 0.000330734
Pt 10.4752 6.97824 2.27933
Pt 13.6982 6.97824 4.55832
Pt 9.66943 5.58265 6.83732
Pt 12.8924 5.58265 9.11631
Pt 11.2809 5.58265 11.3953
Pt 12.0867 6.97824 6.83732
Pt 10.4752 6.97824 9.11631
Pt 13.6982 6.97824 11.3953
Pt 9.66943 5.58265 13.6743
Pt 12.8924 5.58265 15.9533
Pt 11.2809 5.58265 18.2323
Pt 12.0867 6.97824 13.6743
Pt 10.4752 6.97824 15.9533
Pt 13.6982 6.97824 18.2323
Pt 9.66943 5.58265 20.5113
Pt 12.8924 5.58265 22.7903
Pt 11.2809 5.58265 25.0693
Pt 12.0867 6.97824 20.5113
Pt 10.4752 6.97824 22.7903
Pt 13.6982 6.97824 25.0693
Pt 9.66943 5.58265 27.3483
Pt 12.8924 5.58265 29.6273
Pt 11.2809 5.58265 31.9063
Pt 12.0867 6.97824 27.3483
Pt 10.4752 6.97824 29.6273
Pt 13.6982 6.97824 31.9063
Pt 9.66943 5.58265 34.1853
Pt 12.8924 5.58265 36.4643
Pt 11.2809 5.58265 38.7433
Pt 12.0867 6.97824 34.1853
Pt 10.4752 6.97824 36.4643
Pt 13.6982 6.97824 38.7433
Pt 9.66943 8.37383 0.000330734
Pt 12.8924 8.37383 2.27933
Pt 11.2809 8.37383 4.55832
Pt 12.0867 9.76943 0.000330734
Pt 10.4752 9.76943 2.27933
Pt 13.6982 9.76943 4.55832
Pt 9.66943 8.37383 6.83732
Pt 12.8924 8.37383 9.11631
Pt 11.2809 8.37383 11.3953
Pt 12.0867 9.76943 6.83732
Pt 10.4752 9.76943 9.11631
Pt 13.6982 9.76943 11.3953
Pt 9.66943 8.37383 13.6743
Pt 12.8924 8.37383 15.9533
Pt 11.2809 8.37383 18.2323
Pt 12.0867 9.76943 13.6743
Pt 10.4752 9.76943 15.9533
Pt 13.6982 9.76943 18.2323
Pt 9.66943 8.37383 20.5113
Pt 12.8924 8.37383 22.7903
Pt 11.2809 8.37383 25.0693
Pt 12.0867 9.76943 20.5113
Pt 10.4752 9.76943 22.7903
Pt 13.6982 9.76943 25.0693
Pt 9.66943 8.37383 27.3483
Pt 12.8924 8.37383 29.6273
Pt 11.2809 8.37383 31.9063
Pt 12.0867 9.76943 27.3483
Pt 10.4752 9.76943 29.6273
Pt 13.6982 9.76943 31.9063
Pt 9.66943 8.37383 34.1853
Pt 12.8924 8.37383 36.4643
Pt 11.2809 8.37383 38.7433
Pt 12.0867 9.76943 34.1853
Pt 10.4752 9.76943 36.4643
Pt 13.6982 9.76943 38.7433
Pt 9.66943 11.165 0.000330734
Pt 12.8924 11.165 2.27933
Pt 11.2809 11.165 4.55832
Pt 12.0867 12.5606 0.000330734
Pt 10.4752 12.5606 2.27933
Pt 13.6982 12.5606 4.55832
Pt 9.66943 11.165 6.83732
Pt 12.8924 11.165 9.11631
Pt 11.2809 11.165 11.3953
Pt 12.0867 12.5606 6.83732
Pt 10.4752 12.5606 9.11631
Pt 13.6982 12.5606 11.3953
Pt 9.66943 11.165 13.6743
Pt 12.8924 11.165 15.9533
Pt 11.2809 11.165 18.2323
Pt 12.0867 12.5606 13.6743
Pt 10.4752 12.5606 15.9533
Pt 13.6982 12.5606 18.2323
Pt 9.66943 11.165 20.5113
Pt 12.8924 11.165 22.7903
Pt 11.2809 11.165 25.0693
Pt 12.0867 12.5606 20.5113
Pt 10.4752 12.5606 22.7903
Pt 13.6982 12.5606 25.0693
Pt 9.66943 11.165 27.3483
Pt 12.8924 11.165 29.6273
Pt 11.2809 11.165 31.9063
Pt 12.0867 12.5606 27.3483
Pt 10.4752 12.5606 29.6273
Pt 13.6982 12.5606 31.9063
Pt 9.66943 11.165 34.1853
Pt 12.8924 11.165 36.4643
Pt 11.2809 11.165 38.7433
Pt 12.0867 12.5606 34.1853
Pt 10.4752 12.5606 36.4643
Pt 13.6982 12.5606 38.7433
Pt 9.66943 13.9562 0.000330734
Pt 12.8924 13.9562 2.27933
Pt 11.2809 13.9562 4.55832
Pt 12.0867 15.3518 0.000330734
Pt 10.4752 15.3518 2.27933
Pt 13.6982 15.3518 4.55832
Pt 9.66943 13.9562 6.83732
Pt 12.8924 13.9562 9.11631
Pt 11.2809 13.9562 11.3953
Pt 12.0867 15.3518 6.83732
Pt 10.4752 15.3518 9.11631
Pt 13.6982 15.3518 11.3953
Pt 9.66943 13.9562 13.6743
Pt 12.8924 13.9562 15.9533
Pt 11.2809 13.9562 18.2323
Pt 12.0867 15.3518 13.6743
Pt 10.4752 15.3518 15.9533
Pt 13.6982 15.3518 18.2323
Pt 9.66943 13.9562 20.5113
Pt 12.8924 13.9562 22.7903
Pt 11.2809 13.9562 25.0693
Pt 12.0867 15.3518 20.5113
Pt 10.4752 15.3518 22.7903
Pt 13.6982 15.3518 25.0693
Pt 9.66943 13.9562 27.3483
Pt 12.8924 13.9562 29.6273
Pt 11.2809 13.9562 31.9063
Pt 12.0867 15.3518 27.3483
Pt 10.4752 15.3518 29.6273
Pt 13.6982 15.3518 31.9063
Pt 9.66943 13.9562 34.1853
Pt 12.8924 13.9562 36.4643
Pt 11.2809 13.9562 38.7433
Pt 12.0867 15.3518 34.1853
Pt 10.4752 15.3518 36.4643
Pt 13.6982 15.3518 38.7433
Pt 9.66943 16.7474 0.000330734
Pt 12.8924 16.7474 2.27933
Pt 11.2809 16.7474 4.55832
Pt 12.0867 18.143 0.000330734
Pt 10.4752 18.143 2.27933
Pt 13.6982 18.143 4.55832
Pt 9.66943 16.7474 6.83732