ITEM: TIMESTEP
0
ITEM: NUMBER OF ATOMS
3072
ITEM: BOX BOUNDS pp pp pp
0.0000000000000000e+00 3.8676463280000000e+01
0.0000000000000000e+00 4.4659732959999999e+01
0.0000000000000000e+00 2.7348389439999998e+01
ITEM: ATOMS id type xs ys zs
1 1 0 0 0
2 1 0.0833333 0 0.0833333
3 1 0.0416667 0 0.166667
4 1 0.0625 0.03125 0
5 1 0.0208333 0.03125 0.0833333
6 1 0.104167 0.03125 0.166667
25 1 0 0.0625 0
26 1 0.0833333 0.0625 0.0833333
27 1 0.0416667 0.0625 0.166667
28 1 0.0625 0.09375 0
29 1 0.0208333 0.09375 0.0833333
30 1 0.104167 0.09375 0.166667
49 1 0 0.125 0
50 1 0.0833333 0.125 0.0833333
51 1 0.0416667 0.125 0.166667
385 1 0.125 0 0
387 1 0.166667 0 0.166667
389 1 0.145833 0.03125 0.0833333
409 1 0.125 0.0625 0
411 1 0.166667 0.0625 0.166667
413 1 0.145833 0.09375 0.0833333
433 1 0.125 0.125 0
435 1 0.166667 0.125 0.166667
386 1 0.208333 0 0.0833333
388 1 0.1875 0.03125 0
390 1 0.229167 0.03125 0.166667
410 1 0.208333 0.0625 0.0833333
412 1 0.1875 0.09375 0
414 1 0.229167 0.09375 0.166667
434 1 0.208333 0.125 0.0833333
769 1 0.25 0 0
771 1 0.291667 0 0.166667
772 1 0.3125 0.03125 0
773 1 0.270833 0.03125 0.0833333
793 1 0.25 0.0625 0
795 1 0.291667 0.0625 0.166667
796 1 0.3125 0.09375 0
797 1 0.270833 0.09375 0.0833333
817 1 0.25 0.125 0
819 1 0.291667 0.125 0.166667
770 1 0.333333 0 0.0833333
774 1 0.354167 0.03125 0.166667
794 1 0.333333 0.0625 0.0833333
798 1 0.354167 0.09375 0.166667
818 1 0.333333 0.125 0.0833333
1153 1 0.375 0 0
1154 1 0.458333 0 0.0833333
1155 1 0.416667 0 0.166667
1156 1 0.4375 0.03125 0
1157 1 0.395833 0.03125 0.0833333
1158 1 0.479167 0.03125 0.166667
1177 1 0.375 0.0625 0
1178 1 0.458333 0.0625 0.0833333
1179 1 0.416667 0.0625 0.166667
1180 1 0.4375 0.09375 0
1181 1 0.395833 0.09375 0.0833333
1182 1 0.479167 0.09375 0.166667
1201 1 0.375 0.125 0
1202 1 0.458333 0.125 0.0833333
1203 1 0.416667 0.125 0.166667
52 1 0.0625 0.15625 0
53 1 0.0208333 0.15625 0.0833333
54 1 0.104167 0.15625 0.166667
73 1 0 0.1875 0
74 1 0.0833333 0.1875 0.0833333
75 1 0.0416667 0.1875 0.166667
76 1 0.0625 0.21875 0
77 1 0.0208333 0.21875 0.0833333
78 1 0.104167 0.21875 0.166667
97 1 0 0.25 0
98 1 0.0833333 0.25 0.0833333
99 1 0.0416667 0.25 0.166667
437 1 0.145833 0.15625 0.0833333
457 1 0.125 0.1875 0
459 1 0.166667 0.1875 0.166667
461 1 0.145833 0.21875 0.0833333
481 1 0.125 0.25 0
483 1 0.166667 0.25 0.166667
436 1 0.1875 0.15625 0
438 1 0.229167 0.15625 0.166667
458 1 0.208333 0.1875 0.0833333
460 1 0.1875 0.21875 0
462 1 0.229167 0.21875 0.166667
482 1 0.208333 0.25 0.0833333
820 1 0.3125 0.15625 0
821 1 0.270833 0.15625 0.0833333
841 1 0.25 0.1875 0
843 1 0.291667 0.1875 0.166667
844 1 0.3125 0.21875 0
845 1 0.270833 0.21875 0.0833333
865 1 0.25 0.25 0
867 1 0.291667 0.25 0.166667
822 1 0.354167 0.15625 0.166667
842 1 0.333333 0.1875 0.0833333
846 1 0.354167 0.21875 0.166667
866 1 0.333333 0.25 0.0833333
1204 1 0.4375 0.15625 0
1205 1 0.395833 0.15625 0.0833333
1206 1 0.479167 0.15625 0.166667
1225 1 0.375 0.1875 0
1226 1 0.458333 0.1875 0.0833333
1227 1 0.416667 0.1875 0.166667
1228 1 0.4375 0.21875 0
1229 1 0.395833 0.21875 0.0833333
1230 1 0.479167 0.21875 0.166667
1249 1 0.375 0.25 0
1250 1 0.458333 0.25 0.0833333
1251 1 0.416667 0.25 0.166667
100 1 0.0625 0.28125 0
101 1 0.0208333 0.28125 0.0833333
102 1 0.104167 0.28125 0.166667
121 1 0 0.3125 0
122 1 0.0833333 0.3125 0.0833333
123 1 0.0416667 0.3125 0.166667
124 1 0.0625 0.34375 0
125 1 0.0208333 0.34375 0.0833333
126 1 0.104167 0.34375 0.166667
485 1 0.145833 0.28125 0.0833333
505 1 0.125 0.3125 0
507 1 0.166667 0.3125 0.166667
509 1 0.145833 0.34375 0.0833333
484 1 0.1875 0.28125 0
486 1 0.229167 0.28125 0.166667
506 1 0.208333 0.3125 0.0833333
508 1 0.1875 0.34375 0
510 1 0.229167 0.34375 0.166667
868 1 0.3125 0.28125 0
869 1 0.270833 0.28125 0.0833333
889 1 0.25 0.3125 0
891 1 0.291667 0.3125 0.166667
892 1 0.3125 0.34375 0
893 1 0.270833 0.34375 0.0833333
870 1 0.354167 0.28125 0.166667
890 1 0.333333 0.3125 0.0833333
894 1 0.354167 0.34375 0.166667
1252 1 0.4375 0.28125 0
1253 1 0.395833 0.28125 0.0833333
1254 1 0.479167 0.28125 0.166667
1273 1 0.375 0.3125 0
1274 1 0.458333 0.3125 0.0833333
1275 1 0.416667 0.3125 0.166667
1276 1 0.4375 0.34375 0
1277 1 0.395833 0.34375 0.0833333
1278 1 0.479167 0.34375 0.166667
145 1 0 0.375 0
146 1 0.0833333 0.375 0.0833333
147 1 0.0416667 0.375 0.166667
148 1 0.0625 0.40625 0
149 1 0.0208333 0.40625 0.0833333
150 1 0.104167 0.40625 0.166667
169 1 0 0.4375 0
170 1 0.0833333 0.4375 0.0833333
171 1 0.0416667 0.4375 0.166667
172 1 0.0625 0.46875 0
173 1 0.0208333 0.46875 0.0833333
174 1 0.104167 0.46875 0.166667
529 1 0.125 0.375 0
531 1 0.166667 0.375 0.166667
533 1 0.145833 0.40625 0.0833333
553 1 0.125 0.4375 0
555 1 0.166667 0.4375 0.166667
557 1 0.145833 0.46875 0.0833333
530 1 0.208333 0.375 0.0833333
532 1 0.1875 0.40625 0
534 1 0.229167 0.40625 0.166667
554 1 0.208333 0.4375 0.0833333
556 1 0.1875 0.46875 0
558 1 0.229167 0.46875 0.166667
913 1 0.25 0.375 0
915 1 0.291667 0.375 0.166667
916 1 0.3125 0.40625 0
917 1 0.270833 0.40625 0.0833333
937 1 0.25 0.4375 0
939 1 0.291667 0.4375 0.166667
940 1 0.3125 0.46875 0
941 1 0.270833 0.46875 0.0833333
914 1 0.333333 0.375 0.0833333
918 1 0.354167 0.40625 0.166667
938 1 0.333333 0.4375 0.0833333
942 1 0.354167 0.46875 0.166667
1297 1 0.375 0.375 0
1298 1 0.458333 0.375 0.0833333
1299 1 0.416667 0.375 0.166667
1300 1 0.4375 0.40625 0
1301 1 0.395833 0.40625 0.0833333
1302 1 0.479167 0.40625 0.166667
1321 1 0.375 0.4375 0
1322 1 0.458333 0.4375 0.0833333
1323 1 0.416667 0.4375 0.166667
1324 1 0.4375 0.46875 0
1325 1 0.395833 0.46875 0.0833333
1326 1 0.479167 0.46875 0.166667
7 1 0 0 0.25
8 1 0.0833333 0 0.333333
9 1 0.0416667 0 0.416667
10 1 0.0625 0.03125 0.25
11 1 0.0208333 0.03125 0.333333
12 1 0.104167 0.03125 0.416667
31 1 0 0.0625 0.25
32 1 0.0833333 0.0625 0.333333
33 1 0.0416667 0.0625 0.416667
34 1 0.0625 0.09375 0.25
35 1 0.0208333 0.09375 0.333333
36 1 0.104167 0.09375 0.416667
55 1 0 0.125 0.25
56 1 0.0833333 0.125 0.333333
57 1 0.0416667 0.125 0.416667
391 1 0.125 0 0.25
393 1 0.166667 0 0.416667
395 1 0.145833 0.03125 0.333333
415 1 0.125 0.0625 0.25
417 1 0.166667 0.0625 0.416667
419 1 0.145833 0.09375 0.333333
439 1 0.125 0.125 0.25
441 1 0.166667 0.125 0.416667
392 1 0.208333 0 0.333333
394 1 0.1875 0.03125 0.25
396 1 0.229167 0.03125 0.416667
416 1 0.208333 0.0625 0.333333
418 1 0.1875 0.09375 0.25
420 1 0.229167 0.09375 0.416667
440 1 0.208333 0.125 0.333333
775 1 0.25 0 0.25
777 1 0.291667 0 0.416667
778 1 0.3125 0.03125 0.25
779 1 0.270833 0.03125 0.333333
799 1 0.25 0.0625 0.25
801 1 0.291667 0.0625 0.416667
802 1 0.3125 0.09375 0.25
803 1 0.270833 0.09375 0.333333
823 1 0.25 0.125 0.25
825 1 0.291667 0.125 0.416667
776 1 0.333333 0 0.333333
780 1 0.354167 0.03125 0.416667
800 1 0.333333 0.0625 0.333333
804 1 0.354167 0.09375 0.416667
824 1 0.333333 0.125 0.333333
1159 1 0.375 0 0.25
1160 1 0.458333 0 0.333333
1161 1 0.416667 0 0.416667
1162 1 0.4375 0.03125 0.25
1163 1 0.395833 0.03125 0.333333
1164 1 0.479167 0.03125 0.416667
1183 1 0.375 0.0625 0.25
1184 1 0.458333 0.0625 0.333333
1185 1 0.416667 0.0625 0.416667
1186 1 0.4375 0.09375 0.25
1187 1 0.395833 0.09375 0.333333
1188 1 0.479167 0.09375 0.416667
1207 1 0.375 0.125 0.25
1208 1 0.458333 0.125 0.333333
1209 1 0.416667 0.125 0.416667
58 1 0.0625 0.15625 0.25
59 1 0.0208333 0.15625 0.333333
60 1 0.104167 0.15625 0.416667
79 1 0 0.1875 0.25
80 1 0.0833333 0.1875 0.333333
81 1 0.0416667 0.1875 0.416667
82 1 0.0625 0.21875 0.25
83 1 0.0208333 0.21875 0.333333
84 1 0.104167 0.21875 0.416667
103 1 0 0.25 0.25
104 1 0.0833333 0.25 0.333333
105 1 0.0416667 0.25 0.416667
443 1 0.145833 0.15625 0.333333
463 1 0.125 0.1875 0.25
465 1 0.166667 0.1875 0.416667
467 1 0.145833 0.21875 0.333333
487 1 0.125 0.25 0.25
489 1 0.166667 0.25 0.416667
442 1 0.1875 0.15625 0.25
444 1 0.229167 0.15625 0.416667
464 1 0.208333 0.1875 0.333333
466 1 0.1875 0.21875 0.25
468 1 0.229167 0.21875 0.416667
488 1 0.208333 0.25 0.333333
826 1 0.3125 0.15625 0.25
827 1 0.270833 0.15625 0.333333
847 1 0.25 0.1875 0.25
849 1 0.291667 0.1875 0.416667
850 1 0.3125 0.21875 0.25
851 1 0.270833 0.21875 0.333333
871 1 0.25 0.25 0.25
873 1 0.291667 0.25 0.416667
828 1 0.354167 0.15625 0.416667
848 1 0.333333 0.1875 0.333333
852 1 0.354167 0.21875 0.416667
872 1 0.333333 0.25 0.333333
1210 1 0.4375 0.15625 0.25
1211 1 0.395833 0.15625 0.333333
1212 1 0.479167 0.15625 0.416667
1231 1 0.375 0.1875 0.25
1232 1 0.458333 0.1875 0.333333
1233 1 0.416667 0.1875 0.416667
1234 1 0.4375 0.21875 0.25
1235 1 0.395833 0.21875 0.333333
1236 1 0.479167 0.21875 0.416667
1255 1 0.375 0.25 0.25
1256 1 0.458333 0.25 0.333333
1257 1 0.416667 0.25 0.416667
106 1 0.0625 0.28125 0.25
107 1 0.0208333 0.28125 0.333333
108 1 0.104167 0.28125 0.416667
127 1 0 0.3125 0.25
128 1 0.0833333 0.3125 0.333333
129 1 0.0416667 0.3125 0.416667
130 1 0.0625 0.34375 0.25
131 1 0.0208333 0.34375 0.333333
132 1 0.104167 0.34375 0.416667
491 1 0.145833 0.28125 0.333333
511 1 0.125 0.3125 0.25
513 1 0.166667 0.3125 0.416667
515 1 0.145833 0.34375 0.333333
490 1 0.1875 0.28125 0.25
492 1 0.229167 0.28125 0.416667
512 1 0.208333 0.3125 0.333333
514 1 0.1875 0.34375 0.25
516 1 0.229167 0.34375 0.416667
874 1 0.3125 0.28125 0.25
875 1 0.270833 0.28125 0.333333
895 1 0.25 0.3125 0.25
897 1 0.291667 0.3125 0.416667
898 1 0.3125 0.34375 0.25
899 1 0.270833 0.34375 0.333333
876 1 0.354167 0.28125 0.416667
896 1 0.333333 0.3125 0.333333
900 1 0.354167 0.34375 0.416667
1258 1 0.4375 0.28125 0.25
1259 1 0.395833 0.28125 0.333333
1260 1 0.479167 0.28125 0.416667
1279 1 0.375 0.3125 0.25
1280 1 0.458333 0.3125 0.333333
1281 1 0.416667 0.3125 0.416667
1282 1 0.4375 0.34375 0.25
1283 1 0.395833 0.34375 0.333333
1284 1 0.479167 0.34375 0.416667
151 1 0 0.375 0.25
152 1 0.0833333 0.375 0.333333
153 1 0.0416667 0.375 0.416667
154 1 0.0625 0.40625 0.25
155 1 0.0208333 0.40625 0.333333
156 1 0.104167 0.40625 0.416667
175 1 0 0.4375 0.25
176 1 0.0833333 0.4375 0.333333
177 1 0.0416667 0.4375 0.416667
178 1 0.0625 0.46875 0.25
179 1 0.0208333 0.46875 0.333333
180 1 0.104167 0.46875 0.416667
535 1 0.125 0.375 0.25
537 1 0.166667 0.375 0.416667
539 1 0.145833 0.40625 0.333333
559 1 0.125 0.4375 0.25
561 1 0.166667 0.4375 0.416667
563 1 0.145833 0.46875 0.333333
536 1 0.208333 0.375 0.333333
538 1 0.1875 0.40625 0.25
540 1 0.229167 0.40625 0.416667
560 1 0.208333 0.4375 0.333333
562 1 0.1875 0.46875 0.25
564 1 0.229167 0.46875 0.416667
919 1 0.25 0.375 0.25
921 1 0.291667 0.375 0.416667
922 1 0.3125 0.40625 0.25
923 1 0.270833 0.40625 0.333333
943 1 0.25 0.4375 0.25
945 1 0.291667 0.4375 0.416667
946 1 0.3125 0.46875 0.25
947 1 0.270833 0.46875 0.333333
920 1 0.333333 0.375 0.333333
924 1 0.354167 0.40625 0.416667
944 1 0.333333 0.4375 0.333333
948 1 0.354167 0.46875 0.416667
1303 1 0.375 0.375 0.25
1304 1 0.458333 0.375 0.333333
1305 1 0.416667 0.375 0.416667
1306 1 0.4375 0.40625 0.25
1307 1 0.395833 0.40625 0.333333
1308 1 0.479167 0.40625 0.416667
1327 1 0.375 0.4375 0.25
1328 1 0.458333 0.4375 0.333333
1329 1 0.416667 0.4375 0.416667
1330 1 0.4375 0.46875 0.25
1331 1 0.395833 0.46875 0.333333
1332 1 0.479167 0.46875 0.416667
13 1 0 0 0.5
14 1 0.0833333 0 0.583333
15 1 0.0416667 0 0.666667
16 1 0.0625 0.03125 0.5
17 1 0.0208333 0.03125 0.583333
18 1 0.104167 0.03125 0.666667
19 1 0 0 0.75
22 1 0.0625 0.03125 0.75
37 1 0 0.0625 0.5
38 1 0.0833333 0.0625 0.583333
39 1 0.0416667 0.0625 0.666667
40 1 0.0625 0.09375 0.5
41 1 0.0208333 0.09375 0.583333
42 1 0.104167 0.09375 0.666667
43 1 0 0.0625 0.75
46 1 0.0625 0.09375 0.75
61 1 0 0.125 0.5
62 1 0.0833333 0.125 0.583333
63 1 0.0416667 0.125 0.666667
67 1 0 0.125 0.75
397 1 0.125 0 0.5
399 1 0.166667 0 0.666667
401 1 0.145833 0.03125 0.583333
403 1 0.125 0 0.75
421 1 0.125 0.0625 0.5
423 1 0.166667 0.0625 0.666667
425 1 0.145833 0.09375 0.583333
427 1 0.125 0.0625 0.75
445 1 0.125 0.125 0.5
447 1 0.166667 0.125 0.666667
451 1 0.125 0.125 0.75
398 1 0.208333 0 0.583333
400 1 0.1875 0.03125 0.5
402 1 0.229167 0.03125 0.666667
406 1 0.1875 0.03125 0.75
422 1 0.208333 0.0625 0.583333
424 1 0.1875 0.09375 0.5
426 1 0.229167 0.09375 0.666667
430 1 0.1875 0.09375 0.75
446 1 0.208333 0.125 0.583333
781 1 0.25 0 0.5
783 1 0.291667 0 0.666667
784 1 0.3125 0.03125 0.5
785 1 0.270833 0.03125 0.583333
787 1 0.25 0 0.75
790 1 0.3125 0.03125 0.75
805 1 0.25 0.0625 0.5
807 1 0.291667 0.0625 0.666667
808 1 0.3125 0.09375 0.5
809 1 0.270833 0.09375 0.583333
811 1 0.25 0.0625 0.75
814 1 0.3125 0.09375 0.75
829 1 0.25 0.125 0.5
831 1 0.291667 0.125 0.666667
835 1 0.25 0.125 0.75
782 1 0.333333 0 0.583333
786 1 0.354167 0.03125 0.666667
806 1 0.333333 0.0625 0.583333
810 1 0.354167 0.09375 0.666667
830 1 0.333333 0.125 0.583333
1165 1 0.375 0 0.5
1166 1 0.458333 0 0.583333
1167 1 0.416667 0 0.666667
1168 1 0.4375 0.03125 0.5
1169 1 0.395833 0.03125 0.583333
1170 1 0.479167 0.03125 0.666667
1171 1 0.375 0 0.75
1174 1 0.4375 0.03125 0.75
1189 1 0.375 0.0625 0.5
1190 1 0.458333 0.0625 0.583333
1191 1 0.416667 0.0625 0.666667
1192 1 0.4375 0.09375 0.5
1193 1 0.395833 0.09375 0.583333
1194 1 0.479167 0.09375 0.666667
1195 1 0.375 0.0625 0.75
1198 1 0.4375 0.09375 0.75
1213 1 0.375 0.125 0.5
1214 1 0.458333 0.125 0.583333
1215 1 0.416667 0.125 0.666667
1219 1 0.375 0.125 0.75
64 1 0.0625 0.15625 0.5
65 1 0.0208333 0.15625 0.583333
66 1 0.104167 0.15625 0.666667
70 1 0.0625 0.15625 0.75
85 1 0 0.1875 0.5
86 1 0.0833333 0.1875 0.583333
87 1 0.0416667 0.1875 0.666667
88 1 0.0625 0.21875 0.5
89 1 0.0208333 0.21875 0.583333
90 1 0.104167 0.21875 0.666667
91 1 0 0.1875 0.75
94 1 0.0625 0.21875 0.75
109 1 0 0.25 0.5
110 1 0.0833333 0.25 0.583333
111 1 0.0416667 0.25 0.666667
115 1 0 0.25 0.75
449 1 0.145833 0.15625 0.583333
469 1 0.125 0.1875 0.5
471 1 0.166667 0.1875 0.666667
473 1 0.145833 0.21875 0.583333
475 1 0.125 0.1875 0.75
493 1 0.125 0.25 0.5
495 1 0.166667 0.25 0.666667
499 1 0.125 0.25 0.75
448 1 0.1875 0.15625 0.5
450 1 0.229167 0.15625 0.666667
454 1 0.1875 0.15625 0.75
470 1 0.208333 0.1875 0.583333
472 1 0.1875 0.21875 0.5
474 1 0.229167 0.21875 0.666667
478 1 0.1875 0.21875 0.75
494 1 0.208333 0.25 0.583333
832 1 0.3125 0.15625 0.5
833 1 0.270833 0.15625 0.583333
838 1 0.3125 0.15625 0.75
853 1 0.25 0.1875 0.5
855 1 0.291667 0.1875 0.666667
856 1 0.3125 0.21875 0.5
857 1 0.270833 0.21875 0.583333
859 1 0.25 0.1875 0.75
862 1 0.3125 0.21875 0.75
877 1 0.25 0.25 0.5
879 1 0.291667 0.25 0.666667
883 1 0.25 0.25 0.75
834 1 0.354167 0.15625 0.666667
854 1 0.333333 0.1875 0.583333
858 1 0.354167 0.21875 0.666667
878 1 0.333333 0.25 0.583333
1216 1 0.4375 0.15625 0.5
1217 1 0.395833 0.15625 0.583333
1218 1 0.479167 0.15625 0.666667
1222 1 0.4375 0.15625 0.75
1237 1 0.375 0.1875 0.5
1238 1 0.458333 0.1875 0.583333
1239 1 0.416667 0.1875 0.666667
1240 1 0.4375 0.21875 0.5
1241 1 0.395833 0.21875 0.583333
1242 1 0.479167 0.21875 0.666667
1243 1 0.375 0.1875 0.75
1246 1 0.4375 0.21875 0.75
1261 1 0.375 0.25 0.5
1262 1 0.458333 0.25 0.583333
1263 1 0.416667 0.25 0.666667
1267 1 0.375 0.25 0.75
112 1 0.0625 0.28125 0.5
113 1 0.0208333 0.28125 0.583333
114 1 0.104167 0.28125 0.666667
118 1 0.0625 0.28125 0.75
133 1 0 0.3125 0.5
134 1 0.0833333 0.3125 0.583333
135 1 0.0416667 0.3125 0.666667
136 1 0.0625 0.34375 0.5
137 1 0.0208333 0.34375 0.583333
138 1 0.104167 0.34375 0.666667
139 1 0 0.3125 0.75
142 1 0.0625 0.34375 0.75
497 1 0.145833 0.28125 0.583333
517 1 0.125 0.3125 0.5
519 1 0.166667 0.3125 0.666667
521 1 0.145833 0.34375 0.583333
523 1 0.125 0.3125 0.75
496 1 0.1875 0.28125 0.5
498 1 0.229167 0.28125 0.666667
502 1 0.1875 0.28125 0.75
518 1 0.208333 0.3125 0.583333
520 1 0.1875 0.34375 0.5
522 1 0.229167 0.34375 0.666667
526 1 0.1875 0.34375 0.75
880 1 0.3125 0.28125 0.5
881 1 0.270833 0.28125 0.583333
886 1 0.3125 0.28125 0.75
901 1 0.25 0.3125 0.5
903 1 0.291667 0.3125 0.666667
904 1 0.3125 0.34375 0.5
905 1 0.270833 0.34375 0.583333
907 1 0.25 0.3125 0.75
910 1 0.3125 0.34375 0.75
882 1 0.354167 0.28125 0.666667
902 1 0.333333 0.3125 0.583333
906 1 0.354167 0.34375 0.666667
1264 1 0.4375 0.28125 0.5
1265 1 0.395833 0.28125 0.583333
1266 1 0.479167 0.28125 0.666667
1270 1 0.4375 0.28125 0.75
1285 1 0.375 0.3125 0.5
1286 1 0.458333 0.3125 0.583333
1287 1 0.416667 0.3125 0.666667
1288 1 0.4375 0.34375 0.5
1289 1 0.395833 0.34375 0.583333
1290 1 0.479167 0.34375 0.666667
1291 1 0.375 0.3125 0.75
1294 1 0.4375 0.34375 0.75
157 1 0 0.375 0.5
158 1 0.0833333 0.375 0.583333
159 1 0.0416667 0.375 0.666667
160 1 0.0625 0.40625 0.5
161 1 0.0208333 0.40625 0.583333
162 1 0.104167 0.40625 0.666667
163 1 0 0.375 0.75
166 1 0.0625 0.40625 0.75
181 1 0 0.4375 0.5
182 1 0.0833333 0.4375 0.583333
183 1 0.0416667 0.4375 0.666667
184 1 0.0625 0.46875 0.5
185 1 0.0208333 0.46875 0.583333
186 1 0.104167 0.46875 0.666667
187 1 0 0.4375 0.75
190 1 0.0625 0.46875 0.75
541 1 0.125 0.375 0.5
543 1 0.166667 0.375 0.666667
545 1 0.145833 0.40625 0.583333
547 1 0.125 0.375 0.75
565 1 0.125 0.4375 0.5
567 1 0.166667 0.4375 0.666667
569 1 0.145833 0.46875 0.583333
571 1 0.125 0.4375 0.75
542 1 0.208333 0.375 0.583333
544 1 0.1875 0.40625 0.5
546 1 0.229167 0.40625 0.666667
550 1 0.1875 0.40625 0.75
566 1 0.208333 0.4375 0.583333
568 1 0.1875 0.46875 0.5
570 1 0.229167 0.46875 0.666667
574 1 0.1875 0.46875 0.75
925 1 0.25 0.375 0.5
927 1 0.291667 0.375 0.666667
928 1 0.3125 0.40625 0.5
929 1 0.270833 0.40625 0.583333
931 1 0.25 0.375 0.75
934 1 0.3125 0.40625 0.75
949 1 0.25 0.4375 0.5
951 1 0.291667 0.4375 0.666667
952 1 0.3125 0.46875 0.5
953 1 0.270833 0.46875 0.583333
955 1 0.25 0.4375 0.75
958 1 0.3125 0.46875 0.75
926 1 0.333333 0.375 0.583333
930 1 0.354167 0.40625 0.666667
950 1 0.333333 0.4375 0.583333
954 1 0.354167 0.46875 0.666667
1309 1 0.375 0.375 0.5
1310 1 0.458333 0.375 0.583333
1311 1 0.416667 0.375 0.666667
1312 1 0.4375 0.40625 0.5
1313 1 0.395833 0.40625 0.583333
1314 1 0.479167 0.40625 0.666667
1315 1 0.375 0.375 0.75
1318 1 0.4375 0.40625 0.75
1333 1 0.375 0.4375 0.5
1334 1 0.458333 0.4375 0.583333
1335 1 0.416667 0.4375 0.666667
1336 1 0.4375 0.46875 0.5
1337 1 0.395833 0.46875 0.583333
1338 1 0.479167 0.46875 0.666667
1339 1 0.375 0.4375 0.75
1342 1 0.4375 0.46875 0.75
20 1 0.0833333 0 0.833333
21 1 0.0416667 0 0.916667
23 1 0.0208333 0.03125 0.833333
24 1 0.104167 0.03125 0.916667
44 1 0.0833333 0.0625 0.833333
45 1 0.0416667 0.0625 0.916667
47 1 0.0208333 0.09375 0.833333
48 1 0.104167 0.09375 0.916667
68 1 0.0833333 0.125 0.833333
69 1 0.0416667 0.125 0.916667
405 1 0.166667 0 0.916667
407 1 0.145833 0.03125 0.833333
429 1 0.166667 0.0625 0.916667
431 1 0.145833 0.09375 0.833333
453 1 0.166667 0.125 0.916667
404 1 0.208333 0 0.833333
408 1 0.229167 0.03125 0.916667
428 1 0.208333 0.0625 0.833333
432 1 0.229167 0.09375 0.916667
452 1 0.208333 0.125 0.833333
789 1 0.291667 0 0.916667
791 1 0.270833 0.03125 0.833333
813 1 0.291667 0.0625 0.916667
815 1 0.270833 0.09375 0.833333
837 1 0.291667 0.125 0.916667
788 1 0.333333 0 0.833333
792 1 0.354167 0.03125 0.916667
812 1 0.333333 0.0625 0.833333
816 1 0.354167 0.09375 0.916667
836 1 0.333333 0.125 0.833333
1172 1 0.458333 0 0.833333
1173 1 0.416667 0 0.916667
1175 1 0.395833 0.03125 0.833333
1176 1 0.479167 0.03125 0.916667
1196 1 0.458333 0.0625 0.833333
1197 1 0.416667 0.0625 0.916667
1199 1 0.395833 0.09375 0.833333
1200 1 0.479167 0.09375 0.916667
1220 1 0.458333 0.125 0.833333
1221 1 0.416667 0.125 0.916667
71 1 0.0208333 0.15625 0.833333
72 1 0.104167 0.15625 0.916667
92 1 0.0833333 0.1875 0.833333
93 1 0.0416667 0.1875 0.916667
95 1 0.0208333 0.21875 0.833333
96 1 0.104167 0.21875 0.916667
116 1 0.0833333 0.25 0.833333
117 1 0.0416667 0.25 0.916667
455 1 0.145833 0.15625 0.833333
477 1 0.166667 0.1875 0.916667
479 1 0.145833 0.21875 0.833333
501 1 0.166667 0.25 0.916667
456 1 0.229167 0.15625 0.916667
476 1 0.208333 0.1875 0.833333
480 1 0.229167 0.21875 0.916667
500 1 0.208333 0.25 0.833333
839 1 0.270833 0.15625 0.833333
861 1 0.291667 0.1875 0.916667
863 1 0.270833 0.21875 0.833333
885 1 0.291667 0.25 0.916667
840 1 0.354167 0.15625 0.916667
860 1 0.333333 0.1875 0.833333
864 1 0.354167 0.21875 0.916667
884 1 0.333333 0.25 0.833333
1223 1 0.395833 0.15625 0.833333
1224 1 0.479167 0.15625 0.916667
1244 1 0.458333 0.1875 0.833333
1245 1 0.416667 0.1875 0.916667
1247 1 0.395833 0.21875 0.833333
1248 1 0.479167 0.21875 0.916667
1268 1 0.458333 0.25 0.833333
1269 1 0.416667 0.25 0.916667
119 1 0.0208333 0.28125 0.833333
120 1 0.104167 0.28125 0.916667
140 1 0.0833333 0.3125 0.833333
141 1 0.0416667 0.3125 0.916667
143 1 0.0208333 0.34375 0.833333
144 1 0.104167 0.34375 0.916667
503 1 0.145833 0.28125 0.833333
525 1 0.166667 0.3125 0.916667
527 1 0.145833 0.34375 0.833333
504 1 0.229167 0.28125 0.916667
524 1 0.208333 0.3125 0.833333
528 1 0.229167 0.34375 0.916667
887 1 0.270833 0.28125 0.833333
909 1 0.291667 0.3125 0.916667
911 1 0.270833 0.34375 0.833333
888 1 0.354167 0.28125 0.916667
908 1 0.333333 0.3125 0.833333
912 1 0.354167 0.34375 0.916667
1271 1 0.395833 0.28125 0.833333
1272 1 0.479167 0.28125 0.916667
1292 1 0.458333 0.3125 0.833333
1293 1 0.416667 0.3125 0.916667
1295 1 0.395833 0.34375 0.833333
1296 1 0.479167 0.34375 0.916667
164 1 0.0833333 0.375 0.833333
165 1 0.0416667 0.375 0.916667
167 1 0.0208333 0.40625 0.833333
168 1 0.104167 0.40625 0.916667
188 1 0.0833333 0.4375 0.833333
189 1 0.0416667 0.4375 0.916667
191 1 0.0208333 0.46875 0.833333
192 1 0.104167 0.46875 0.916667
549 1 0.166667 0.375 0.916667
551 1 0.145833 0.40625 0.833333
573 1 0.166667 0.4375 0.916667
575 1 0.145833 0.46875 0.833333
548 1 0.208333 0.375 0.833333
552 1 0.229167 0.40625 0.916667
572 1 0.208333 0.4375 0.833333
576 1 0.229167 0.46875 0.916667
933 1 0.291667 0.375 0.916667
935 1 0.270833 0.40625 0.833333
957 1 0.291667 0.4375 0.916667
959 1 0.270833 0.46875 0.833333
932 1 0.333333 0.375 0.833333
936 1 0.354167 0.40625 0.916667
956 1 0.333333 0.4375 0.833333
960 1 0.354167 0.46875 0.916667
1316 1 0.458333 0.375 0.833333
1317 1 0.416667 0.375 0.916667
1319 1 0.395833 0.40625 0.833333
1320 1 0.479167 0.40625 0.916667
1340 1 0.458333 0.4375 0.833333
1341 1 0.416667 0.4375 0.916667
1343 1 0.395833 0.46875 0.833333
1344 1 0.479167 0.46875 0.916667
193 1 0 0.5 0
194 1 0.0833333 0.5 0.0833333
195 1 0.0416667 0.5 0.166667
196 1 0.0625 0.53125 0
197 1 0.0208333 0.53125 0.0833333
198 1 0.104167 0.53125 0.166667
217 1 0 0.5625 0
218 1 0.0833333 0.5625 0.0833333
219 1 0.0416667 0.5625 0.166667
220 1 0.0625 0.59375 0
221 1 0.0208333 0.59375 0.0833333
222 1 0.104167 0.59375 0.166667
241 1 0 0.625 0
242 1 0.0833333 0.625 0.0833333
243 1 0.0416667 0.625 0.166667
577 1 0.125 0.5 0
579 1 0.166667 0.5 0.166667
581 1 0.145833 0.53125 0.0833333
601 1 0.125 0.5625 0
603 1 0.166667 0.5625 0.166667
605 1 0.145833 0.59375 0.0833333
625 1 0.125 0.625 0
627 1 0.166667 0.625 0.166667
578 1 0.208333 0.5 0.0833333
580 1 0.1875 0.53125 0
582 1 0.229167 0.53125 0.166667
602 1 0.208333 0.5625 0.0833333
604 1 0.1875 0.59375 0
606 1 0.229167 0.59375 0.166667
626 1 0.208333 0.625 0.0833333
961 1 0.25 0.5 0
963 1 0.291667 0.5 0.166667
964 1 0.3125 0.53125 0
965 1 0.270833 0.53125 0.0833333
985 1 0.25 0.5625 0
987 1 0.291667 0.5625 0.166667
988 1 0.3125 0.59375 0
989 1 0.270833 0.59375 0.0833333
1009 1 0.25 0.625 0
1011 1 0.291667 0.625 0.166667
962 1 0.333333 0.5 0.0833333
966 1 0.354167 0.53125 0.166667
986 1 0.333333 0.5625 0.0833333
990 1 0.354167 0.59375 0.166667
1010 1 0.333333 0.625 0.0833333
1345 1 0.375 0.5 0
1346 1 0.458333 0.5 0.0833333
1347 1 0.416667 0.5 0.166667
1348 1 0.4375 0.53125 0
1349 1 0.395833 0.53125 0.0833333
1350 1 0.479167 0.53125 0.166667
1369 1 0.375 0.5625 0
1370 1 0.458333 0.5625 0.0833333
1371 1 0.416667 0.5625 0.166667
1372 1 0.4375 0.59375 0
1373 1 0.395833 0.59375 0.0833333
1374 1 0.479167 0.59375 0.166667
1393 1 0.375 0.625 0
1394 1 0.458333 0.625 0.0833333
1395 1 0.416667 0.625 0.166667
244 1 0.0625 0.65625 0
245 1 0.0208333 0.65625 0.0833333
246 1 0.104167 0.65625 0.166667
265 1 0 0.6875 0
266 1 0.0833333 0.6875 0.0833333
267 1 0.0416667 0.6875 0.166667
268 1 0.0625 0.71875 0
269 1 0.0208333 0.71875 0.0833333
270 1 0.104167 0.71875 0.166667
629 1 0.145833 0.65625 0.0833333
649 1 0.125 0.6875 0
651 1 0.166667 0.6875 0.166667
653 1 0.145833 0.71875 0.0833333
628 1 0.1875 0.65625 0
630 1 0.229167 0.65625 0.166667
650 1 0.208333 0.6875 0.0833333
652 1 0.1875 0.71875 0
654 1 0.229167 0.71875 0.166667
1012 1 0.3125 0.65625 0
1013 1 0.270833 0.65625 0.0833333
1033 1 0.25 0.6875 0
1035 1 0.291667 0.6875 0.166667
1036 1 0.3125 0.71875 0
1037 1 0.270833 0.71875 0.0833333
1014 1 0.354167 0.65625 0.166667
1034 1 0.333333 0.6875 0.0833333
1038 1 0.354167 0.71875 0.166667
1396 1 0.4375 0.65625 0
1397 1 0.395833 0.65625 0.0833333
1398 1 0.479167 0.65625 0.166667
1417 1 0.375 0.6875 0
1418 1 0.458333 0.6875 0.0833333
1419 1 0.416667 0.6875 0.166667
1420 1 0.4375 0.71875 0
1421 1 0.395833 0.71875 0.0833333
1422 1 0.479167 0.71875 0.166667
289 1 0 0.75 0
290 1 0.0833333 0.75 0.0833333
291 1 0.0416667 0.75 0.166667
292 1 0.0625 0.78125 0
293 1 0.0208333 0.78125 0.0833333
294 1 0.104167 0.78125 0.166667
313 1 0 0.8125 0
314 1 0.0833333 0.8125 0.0833333
315 1 0.0416667 0.8125 0.166667
316 1 0.0625 0.84375 0
317 1 0.0208333 0.84375 0.0833333
318 1 0.104167 0.84375 0.166667
673 1 0.125 0.75 0
675 1 0.166667 0.75 0.166667
677 1 0.145833 0.78125 0.0833333
697 1 0.125 0.8125 0
699 1 0.166667 0.8125 0.166667
701 1 0.145833 0.84375 0.0833333
674 1 0.208333 0.75 0.0833333
676 1 0.1875 0.78125 0
678 1 0.229167 0.78125 0.166667
698 1 0.208333 0.8125 0.0833333
700 1 0.1875 0.84375 0
702 1 0.229167 0.84375 0.166667
1057 1 0.25 0.75 0
1059 1 0.291667 0.75 0.166667
1060 1 0.3125 0.78125 0
1061 1 0.270833 0.78125 0.0833333
1081 1 0.25 0.8125 0
1083 1 0.291667 0.8125 0.166667
1084 1 0.3125 0.84375 0
1085 1 0.270833 0.84375 0.0833333
1058 1 0.333333 0.75 0.0833333
1062 1 0.354167 0.78125 0.166667
1082 1 0.333333 0.8125 0.0833333
1086 1 0.354167 0.84375 0.166667
1441 1 0.375 0.75 0
1442 1 0.458333 0.75 0.0833333
1443 1 0.416667 0.75 0.166667
1444 1 0.4375 0.78125 0
1445 1 0.395833 0.78125 0.0833333
1446 1 0.479167 0.78125 0.166667
1465 1 0.375 0.8125 0
1466 1 0.458333 0.8125 0.0833333
1467 1 0.416667 0.8125 0.166667
1468 1 0.4375 0.84375 0
1469 1 0.395833 0.84375 0.0833333
1470 1 0.479167 0.84375 0.166667
337 1 0 0.875 0
338 1 0.0833333 0.875 0.0833333
339 1 0.0416667 0.875 0.166667
340 1 0.0625 0.90625 0
341 1 0.0208333 0.90625 0.0833333
342 1 0.104167 0.90625 0.166667
361 1 0 0.9375 0
362 1 0.0833333 0.9375 0.0833333
363 1 0.0416667 0.9375 0.166667
364 1 0.0625 0.96875 0
365 1 0.0208333 0.96875 0.0833333
366 1 0.104167 0.96875 0.166667
721 1 0.125 0.875 0
723 1 0.166667 0.875 0.166667
725 1 0.145833 0.90625 0.0833333
745 1 0.125 0.9375 0
747 1 0.166667 0.9375 0.166667
749 1 0.145833 0.96875 0.0833333
722 1 0.208333 0.875 0.0833333
724 1 0.1875 0.90625 0
726 1 0.229167 0.90625 0.166667
746 1 0.208333 0.9375 0.0833333
748 1 0.1875 0.96875 0
750 1 0.229167 0.96875 0.166667
1105 1 0.25 0.875 0
1107 1 0.291667 0.875 0.166667
1108 1 0.3125 0.90625 0
1109 1 0.270833 0.90625 0.0833333
1129 1 0.25 0.9375 0
1131 1 0.291667 0.9375 0.166667
1132 1 0.3125 0.96875 0
1133 1 0.270833 0.96875 0.0833333
1106 1 0.333333 0.875 0.0833333
1110 1 0.354167 0.90625 0.166667
1130 1 0.333333 0.9375 0.0833333
1134 1 0.354167 0.96875 0.166667
1489 1 0.375 0.875 0
1490 1 0.458333 0.875 0.0833333
1491 1 0.416667 0.875 0.166667
1492 1 0.4375 0.90625 0
1493 1 0.395833 0.90625 0.0833333
1494 1 0.479167 0.90625 0.166667
1513 1 0.375 0.9375 0
1514 1 0.458333 0.9375 0.0833333
1515 1 0.416667 0.9375 0.166667
1516 1 0.4375 0.96875 0
1517 1 0.395833 0.96875 0.0833333
1518 1 0.479167 0.96875 0.166667
199 1 0 0.5 0.25
200 1 0.0833333 0.5 0.333333
201 1 0.0416667 0.5 0.416667
202 1 0.0625 0.53125 0.25
203 1 0.0208333 0.53125 0.333333
204 1 0.104167 0.53125 0.416667
223 1 0 0.5625 0.25
224 1 0.0833333 0.5625 0.333333
225 1 0.0416667 0.5625 0.416667
226 1 0.0625 0.59375 0.25
227 1 0.0208333 0.59375 0.333333
228 1 0.104167 0.59375 0.416667
247 1 0 0.625 0.25
248 1 0.0833333 0.625 0.333333
249 1 0.0416667 0.625 0.416667
583 1 0.125 0.5 0.25
585 1 0.166667 0.5 0.416667
587 1 0.145833 0.53125 0.333333
607 1 0.125 0.5625 0.25
609 1 0.166667 0.5625 0.416667
611 1 0.145833 0.59375 0.333333
631 1 0.125 0.625 0.25
633 1 0.166667 0.625 0.416667
584 1 0.208333 0.5 0.333333
586 1 0.1875 0.53125 0.25
588 1 0.229167 0.53125 0.416667
608 1 0.208333 0.5625 0.333333
610 1 0.1875 0.59375 0.25
612 1 0.229167 0.59375 0.416667
632 1 0.208333 0.625 0.333333
967 1 0.25 0.5 0.25
969 1 0.291667 0.5 0.416667
970 1 0.3125 0.53125 0.25
971 1 0.270833 0.53125 0.333333
991 1 0.25 0.5625 0.25
993 1 0.291667 0.5625 0.416667
994 1 0.3125 0.59375 0.25
995 1 0.270833 0.59375 0.333333
1015 1 0.25 0.625 0.25
1017 1 0.291667 0.625 0.416667
968 1 0.333333 0.5 0.333333
972 1 0.354167 0.53125 0.416667
992 1 0.333333 0.5625 0.333333
996 1 0.354167 0.59375 0.416667
1016 1 0.333333 0.625 0.333333
1351 1 0.375 0.5 0.25
1352 1 0.458333 0.5 0.333333
1353 1 0.416667 0.5 0.416667
1354 1 0.4375 0.53125 0.25
1355 1 0.395833 0.53125 0.333333
1356 1 0.479167 0.53125 0.416667
1375 1 0.375 0.5625 0.25
1376 1 0.458333 0.5625 0.333333
1377 1 0.416667 0.5625 0.416667
1378 1 0.4375 0.59375 0.25
1379 1 0.395833 0.59375 0.333333
1380 1 0.479167 0.59375 0.416667
1399 1 0.375 0.625 0.25
1400 1 0.458333 0.625 0.333333
1401 1 0.416667 0.625 0.416667
250 1 0.0625 0.65625 0.25
251 1 0.0208333 0.65625 0.333333
252 1 0.104167 0.65625 0.416667
271 1 0 0.6875 0.25
272 1 0.0833333 0.6875 0.333333
273 1 0.0416667 0.6875 0.416667
274 1 0.0625 0.71875 0.25
275 1 0.0208333 0.71875 0.333333
276 1 0.104167 0.71875 0.416667
635 1 0.145833 0.65625 0.333333
655 1 0.125 0.6875 0.25
657 1 0.166667 0.6875 0.416667
659 1 0.145833 0.71875 0.333333
634 1 0.1875 0.65625 0.25
636 1 0.229167 0.65625 0.416667
656 1 0.208333 0.6875 0.333333
658 1 0.1875 0.71875 0.25
660 1 0.229167 0.71875 0.416667
1018 1 0.3125 0.65625 0.25
1019 1 0.270833 0.65625 0.333333
1039 1 0.25 0.6875 0.25