ITEM: TIMESTEP
0
ITEM: NUMBER OF ATOMS
3072
ITEM: BOX BOUNDS pp pp pp
0.0000000000000000e+00 3.8676463280000000e+01
0.0000000000000000e+00 4.4659732959999999e+01
0.0000000000000000e+00 2.7348389439999998e+01
ITEM: ATOMS id type x y z v_stress_xx v_stress_yy v_stress_zz v_stress_xy v_stress_xz v_stress_yz
1 1 0 0 0 -114.785 -114.793 -114.748 -1.74262e-10 -0.00756114 8.71312e-11
2 1 3.22304 0 2.27903 -114.808 -114.803 -114.823 1.43151e-10 0.00401708 -2.23213e-11
3 1 1.61152 0 4.55806 -114.808 -114.803 -114.823 1.66341e-10 0.00401708 4.43505e-12
4 1 2.41728 1.39562 0 -114.785 -114.793 -114.748 -4.95064e-11 -0.00756114 3.16841e-11
5 1 0.80576 1.39562 2.27903 -114.808 -114.803 -114.823 5.94076e-11 0.00401708 -5.54471e-11
6 1 4.0288 1.39562 4.55806 -114.808 -114.803 -114.823 1.60036e-11 0.00401708 -1.52517e-11
25 1 0 2.79123 0 -114.785 -114.793 -114.748 2.49512e-10 -0.00756114 2.17828e-11
26 1 3.22304 2.79123 2.27903 -114.808 -114.803 -114.823 -1.72343e-10 0.00401708 3.04464e-11
27 1 1.61152 2.79123 4.55806 -114.808 -114.803 -114.823 -1.04288e-10 0.00401708 1.83377e-11
28 1 2.41728 4.18685 0 -114.785 -114.793 -114.748 6.73286e-11 -0.00756114 2.29709e-10
29 1 0.80576 4.18685 2.27903 -114.808 -114.803 -114.823 -2.24689e-10 0.00401708 -2.81041e-10
30 1 4.0288 4.18685 4.55806 -114.808 -114.803 -114.823 2.19356e-10 0.00401708 2.96015e-10
49 1 0 5.58247 0 -114.785 -114.793 -114.748 -3.96051e-12 -0.00756114 -7.92102e-12
50 1 3.22304 5.58247 2.27903 -114.808 -114.803 -114.823 6.67475e-11 0.00401708 -5.69323e-12
51 1 1.61152 5.58247 4.55806 -114.808 -114.803 -114.823 -1.33435e-12 0.00401708 -3.537e-12
385 1 4.83456 0 0 -114.785 -114.793 -114.748 1.90104e-10 -0.00756114 2.53473e-10
387 1 6.44608 0 4.55806 -114.808 -114.803 -114.823 -9.50522e-11 0.00401708 -7.81272e-11
389 1 5.64032 1.39562 2.27903 -114.808 -114.803 -114.823 -1.22776e-10 0.00401708 1.98025e-10
409 1 4.83456 2.79123 0 -114.785 -114.793 -114.748 -1.96045e-10 -0.00756114 -2.18199e-10
411 1 6.44608 2.79123 4.55806 -114.808 -114.803 -114.823 1.80079e-10 0.00401708 7.06278e-11
413 1 5.64032 4.18685 2.27903 -114.808 -114.803 -114.823 3.82437e-11 0.00401708 -2.91059e-10
433 1 4.83456 5.58247 0 -114.785 -114.793 -114.748 -6.57023e-12 -0.00756114 6.44018e-12
435 1 6.44608 5.58247 4.55806 -114.808 -114.803 -114.823 6.20763e-11 0.00401708 5.88244e-12
386 1 8.0576 0 2.27903 -114.808 -114.803 -114.823 4.51745e-11 0.00401708 2.55886e-11
388 1 7.25184 1.39562 0 -114.785 -114.793 -114.748 3.56446e-11 -0.00756114 5.94076e-12
390 1 8.86336 1.39562 4.55806 -114.808 -114.803 -114.823 1.50685e-11 0.00401708 -5.35179e-12
410 1 8.0576 2.79123 2.27903 -114.808 -114.803 -114.823 1.05201e-11 0.00401708 -2.39023e-12
412 1 7.25184 4.18685 0 -114.785 -114.793 -114.748 1.93357e-10 -0.00756114 3.33617e-10
414 1 8.86336 4.18685 4.55806 -114.808 -114.803 -114.823 2.3126e-10 0.00401708 3.18777e-10
434 1 8.0576 5.58247 2.27903 -114.808 -114.803 -114.823 4.87835e-11 0.00401708 2.44489e-12
769 1 9.66912 0 0 -114.785 -114.793 -114.748 1.26736e-10 -0.00756114 -7.12891e-11
771 1 11.2806 0 4.55806 -114.808 -114.803 -114.823 9.50522e-11 0.00401708 3.80704e-10
772 1 12.0864 1.39562 0 -114.785 -114.793 -114.748 -1.18815e-11 -0.00756114 1.78223e-11
773 1 10.4749 1.39562 2.27903 -114.808 -114.803 -114.823 -1.74262e-10 0.00401708 1.74262e-10
793 1 9.66912 2.79123 0 -114.785 -114.793 -114.748 3.68822e-11 -0.00756114 1.25251e-10
795 1 11.2806 2.79123 4.55806 -114.808 -114.803 -114.823 -2.43819e-11 0.00401708 -3.8422e-10
796 1 12.0864 4.18685 0 -114.785 -114.793 -114.748 -9.57136e-11 -0.00756114 -7.03454e-11
797 1 10.4749 4.18685 2.27903 -114.808 -114.803 -114.823 -1.41712e-10 0.00401708 -3.48942e-10
817 1 9.66912 5.58247 0 -114.785 -114.793 -114.748 -2.26811e-11 -0.00756114 4.14727e-11
819 1 11.2806 5.58247 4.55806 -114.808 -114.803 -114.823 1.87293e-12 0.00401708 3.70637e-11
770 1 12.8922 0 2.27903 -114.808 -114.803 -114.823 2.10402e-12 0.00401708 -1.03716e-10
774 1 13.6979 1.39562 4.55806 -114.808 -114.803 -114.823 1.89981e-11 0.00401708 5.21634e-11
794 1 12.8922 2.79123 2.27903 -114.808 -114.803 -114.823 -7.90709e-11 0.00401708 -4.71548e-11
798 1 13.6979 4.18685 4.55806 -114.808 -114.803 -114.823 1.18767e-10 0.00401708 2.74748e-10
818 1 12.8922 5.58247 2.27903 -114.808 -114.803 -114.823 9.48911e-11 0.00401708 1.83066e-11
1153 1 14.5037 0 0 -114.785 -114.793 -114.748 9.50522e-11 -0.00756114 -7.12891e-11
1154 1 17.7267 0 2.27903 -114.808 -114.803 -114.823 -6.33681e-11 0.00401708 1.38618e-11
1155 1 16.1152 0 4.55806 -114.808 -114.803 -114.823 1.5842e-10 0.00401708 3.42027e-10
1156 1 16.921 1.39562 0 -114.785 -114.793 -114.748 -1.98025e-11 -0.00756114 -5.94076e-12
1157 1 15.3094 1.39562 2.27903 -114.808 -114.803 -114.823 -1.14855e-10 0.00401708 2.53473e-10
1158 1 18.5325 1.39562 4.55806 -114.808 -114.803 -114.823 3.96051e-11 0.00401708 -5.94076e-12
1177 1 14.5037 2.79123 0 -114.785 -114.793 -114.748 -3.14365e-11 -0.00756114 1.25251e-10
1178 1 17.7267 2.79123 2.27903 -114.808 -114.803 -114.823 -1.00065e-10 0.00401708 -6.93862e-12
1179 1 16.1152 2.79123 4.55806 -114.808 -114.803 -114.823 -1.54955e-10 0.00401708 -3.25918e-10
1180 1 16.921 4.18685 0 -114.785 -114.793 -114.748 1.90948e-11 -0.00756114 2.14809e-10
1181 1 15.3094 4.18685 2.27903 -114.808 -114.803 -114.823 -1.04613e-10 0.00401708 -3.28498e-10
1182 1 18.5325 4.18685 4.55806 -114.808 -114.803 -114.823 1.21908e-10 0.00401708 2.91298e-10
1201 1 14.5037 5.58247 0 -114.785 -114.793 -114.748 -2.6601e-11 -0.00756114 3.35454e-11
1202 1 17.7267 5.58247 2.27903 -114.808 -114.803 -114.823 1.0018e-10 0.00401708 4.64636e-13
1203 1 16.1152 5.58247 4.55806 -114.808 -114.803 -114.823 -7.25191e-14 0.00401708 2.13882e-11
52 1 2.41728 6.97808 0 -114.785 -114.793 -114.748 -6.73286e-11 -0.00756114 -2.85157e-10
53 1 0.80576 6.97808 2.27903 -114.808 -114.803 -114.823 7.42595e-12 0.00401708 1.90909e-10
54 1 4.0288 6.97808 4.55806 -114.808 -114.803 -114.823 -3.53539e-10 0.00401708 -2.26549e-10
73 1 0 8.3737 0 -114.785 -114.793 -114.748 -2.15848e-10 -0.00756114 2.27729e-10
74 1 3.22304 8.3737 2.27903 -114.808 -114.803 -114.823 -1.46877e-10 0.00401708 -3.00627e-10
75 1 1.61152 8.3737 4.55806 -114.808 -114.803 -114.823 7.52796e-11 0.00401708 9.52108e-11
76 1 2.41728 9.76932 0 -114.785 -114.793 -114.748 1.18815e-11 -0.00756114 2.3763e-11
77 1 0.80576 9.76932 2.27903 -114.808 -114.803 -114.823 -1.82941e-11 0.00401708 5.78605e-12
78 1 4.0288 9.76932 4.55806 -114.808 -114.803 -114.823 7.32152e-11 0.00401708 8.17918e-12
97 1 0 11.1649 0 -114.785 -114.793 -114.748 -2.17828e-11 -0.00756114 5.94076e-12
98 1 3.22304 11.1649 2.27903 -114.808 -114.803 -114.823 5.31439e-11 0.00401708 1.83173e-11
99 1 1.61152 11.1649 4.55806 -114.808 -114.803 -114.823 1.09163e-11 0.00401708 -4.82107e-12
437 1 5.64032 6.97808 2.27903 -114.808 -114.803 -114.823 -2.01736e-10 0.00401708 1.9149e-10
457 1 4.83456 8.3737 0 -114.785 -114.793 -114.748 -1.5842e-11 -0.00756114 2.3763e-10
459 1 6.44608 8.3737 4.55806 -114.808 -114.803 -114.823 -2.56405e-10 0.00401708 4.27572e-11
461 1 5.64032 9.76932 2.27903 -114.808 -114.803 -114.823 -9.39847e-12 0.00401708 -1.78532e-11
481 1 4.83456 11.1649 0 -114.785 -114.793 -114.748 1.18815e-11 -0.00756114 7.92102e-12
483 1 6.44608 11.1649 4.55806 -114.808 -114.803 -114.823 6.04318e-11 0.00401708 -1.46953e-11
436 1 7.25184 6.97808 0 -114.785 -114.793 -114.748 -3.79453e-10 -0.00756114 -2.47236e-10
438 1 8.86336 6.97808 4.55806 -114.808 -114.803 -114.823 -3.33699e-10 0.00401708 -2.42391e-10
458 1 8.0576 8.3737 2.27903 -114.808 -114.803 -114.823 -9.83629e-11 0.00401708 -3.11519e-10
460 1 7.25184 9.76932 0 -114.785 -114.793 -114.748 -3.56446e-11 -0.00756114 2.3763e-11
462 1 8.86336 9.76932 4.55806 -114.808 -114.803 -114.823 -2.28272e-11 0.00401708 3.68929e-11
482 1 8.0576 11.1649 2.27903 -114.808 -114.803 -114.823 2.74267e-11 0.00401708 2.47532e-12
820 1 12.0864 6.97808 0 -114.785 -114.793 -114.748 -3.88322e-11 -0.00756114 -2.15549e-10
821 1 10.4749 6.97808 2.27903 -114.808 -114.803 -114.823 1.01194e-10 0.00401708 2.96134e-10
841 1 9.66912 8.3737 0 -114.785 -114.793 -114.748 4.75261e-11 -0.00756114 3.0892e-10
843 1 11.2806 8.3737 4.55806 -114.808 -114.803 -114.823 9.2126e-11 0.00401708 1.43729e-10
844 1 12.0864 9.76932 0 -114.785 -114.793 -114.748 -7.92102e-12 -0.00756114 3.16841e-11
845 1 10.4749 9.76932 2.27903 -114.808 -114.803 -114.823 4.52519e-12 0.00401708 -1.98025e-11
865 1 9.66912 11.1649 0 -114.785 -114.793 -114.748 2.77236e-11 -0.00756114 6.33681e-11
867 1 11.2806 11.1649 4.55806 -114.808 -114.803 -114.823 1.03316e-12 0.00401708 -3.05644e-11
822 1 13.6979 6.97808 4.55806 -114.808 -114.803 -114.823 -1.00042e-10 0.00401708 -2.26549e-10
842 1 12.8922 8.3737 2.27903 -114.808 -114.803 -114.823 -8.74155e-11 0.00401708 -2.51245e-10
846 1 13.6979 9.76932 4.55806 -114.808 -114.803 -114.823 -2.04368e-12 0.00401708 2.20149e-11
866 1 12.8922 11.1649 2.27903 -114.808 -114.803 -114.823 4.52567e-11 0.00401708 -4.95064e-13
1204 1 16.921 6.97808 0 -114.785 -114.793 -114.748 -5.07267e-11 -0.00756114 -2.47233e-10
1205 1 15.3094 6.97808 2.27903 -114.808 -114.803 -114.823 1.80376e-10 0.00401708 3.2491e-10
1206 1 18.5325 6.97808 4.55806 -114.808 -114.803 -114.823 -6.04221e-11 0.00401708 -2.58216e-10
1225 1 14.5037 8.3737 0 -114.785 -114.793 -114.748 9.90127e-11 -0.00756114 3.32683e-10
1226 1 17.7267 8.3737 2.27903 -114.808 -114.803 -114.823 -2.79808e-11 0.00401708 -3.18078e-10
1227 1 16.1152 8.3737 4.55806 -114.808 -114.803 -114.823 6.04362e-11 0.00401708 2.07118e-10
1228 1 16.921 9.76932 0 -114.785 -114.793 -114.748 -3.96051e-11 -0.00756114 -7.92102e-12
1229 1 15.3094 9.76932 2.27903 -114.808 -114.803 -114.823 2.92706e-11 0.00401708 -2.8559e-11
1230 1 18.5325 9.76932 4.55806 -114.808 -114.803 -114.823 -8.19387e-12 0.00401708 -1.01101e-11
1249 1 14.5037 11.1649 0 -114.785 -114.793 -114.748 1.18815e-11 -0.00756114 3.16841e-11
1250 1 17.7267 11.1649 2.27903 -114.808 -114.803 -114.823 4.04521e-11 0.00401708 -1.28717e-11
1251 1 16.1152 11.1649 4.55806 -114.808 -114.803 -114.823 1.29086e-11 0.00401708 -4.19257e-12
100 1 2.41728 12.5605 0 -114.785 -114.793 -114.748 3.96051e-12 -0.00756114 1.5842e-11
101 1 0.80576 12.5605 2.27903 -114.808 -114.803 -114.823 -2.44438e-12 0.00401708 -5.32193e-12
102 1 4.0288 12.5605 4.55806 -114.808 -114.803 -114.823 -3.66981e-11 0.00401708 4.27659e-11
121 1 0 13.9562 0 -114.785 -114.793 -114.748 -4.35656e-11 -0.00756114 2.3763e-11
122 1 3.22304 13.9562 2.27903 -114.808 -114.803 -114.823 6.10649e-11 0.00401708 4.19566e-11
123 1 1.61152 13.9562 4.55806 -114.808 -114.803 -114.823 1.88465e-11 0.00401708 -4.53911e-11
124 1 2.41728 15.3518 0 -114.785 -114.793 -114.748 -2.3763e-11 -0.00756114 -3.64367e-10
125 1 0.80576 15.3518 2.27903 -114.808 -114.803 -114.823 3.88315e-12 0.00401708 2.04337e-10
126 1 4.0288 15.3518 4.55806 -114.808 -114.803 -114.823 -7.68453e-11 0.00401708 2.20515e-10
485 1 5.64032 12.5605 2.27903 -114.808 -114.803 -114.823 1.32662e-11 0.00401708 -1.24385e-11
505 1 4.83456 13.9562 0 -114.785 -114.793 -114.748 -3.10995e-12 -0.00756114 5.72774e-11
507 1 6.44608 13.9562 4.55806 -114.808 -114.803 -114.823 5.07158e-13 0.00401708 -5.88549e-11
509 1 5.64032 15.3518 2.27903 -114.808 -114.803 -114.823 -2.01647e-10 0.00401708 -1.47198e-10
484 1 7.25184 12.5605 0 -114.785 -114.793 -114.748 1.18815e-11 -0.00756114 -7.92102e-12
486 1 8.86336 12.5605 4.55806 -114.808 -114.803 -114.823 3.45911e-11 0.00401708 -2.06022e-11
506 1 8.0576 13.9562 2.27903 -114.808 -114.803 -114.823 2.33244e-11 0.00401708 1.69559e-11
508 1 7.25184 15.3518 0 -114.785 -114.793 -114.748 -2.44811e-10 -0.00756114 -2.74077e-10
510 1 8.86336 15.3518 4.55806 -114.808 -114.803 -114.823 -1.01175e-10 0.00401708 2.27125e-10
868 1 12.0864 12.5605 0 -114.785 -114.793 -114.748 -4.75261e-11 -0.00756114 -2.3763e-11
869 1 10.4749 12.5605 2.27903 -114.808 -114.803 -114.823 2.51245e-11 0.00401708 1.03035e-11
889 1 9.66912 13.9562 0 -114.785 -114.793 -114.748 -4.2715e-11 -0.00756114 3.35144e-11
891 1 11.2806 13.9562 4.55806 -114.808 -114.803 -114.823 8.42769e-12 0.00401708 -3.40783e-12
892 1 12.0864 15.3518 0 -114.785 -114.793 -114.748 2.14625e-10 -0.00756114 5.86112e-11
893 1 10.4749 15.3518 2.27903 -114.808 -114.803 -114.823 3.45242e-10 0.00401708 1.559e-10
870 1 13.6979 12.5605 4.55806 -114.808 -114.803 -114.823 6.86756e-12 0.00401708 2.69239e-11
890 1 12.8922 13.9562 2.27903 -114.808 -114.803 -114.823 1.54536e-11 0.00401708 2.48769e-11
894 1 13.6979 15.3518 4.55806 -114.808 -114.803 -114.823 -1.72283e-10 0.00401708 1.79723e-10
1252 1 16.921 12.5605 0 -114.785 -114.793 -114.748 1.98025e-11 -0.00756114 3.16841e-11
1253 1 15.3094 12.5605 2.27903 -114.808 -114.803 -114.823 4.09974e-11 0.00401708 -1.44187e-11
1254 1 18.5325 12.5605 4.55806 -114.808 -114.803 -114.823 5.30205e-12 0.00401708 -2.64105e-11
1273 1 14.5037 13.9562 0 -114.785 -114.793 -114.748 -1.8952e-11 -0.00756114 4.14354e-11
1274 1 17.7267 13.9562 2.27903 -114.808 -114.803 -114.823 7.0269e-11 0.00401708 5.69323e-12
1275 1 16.1152 13.9562 4.55806 -114.808 -114.803 -114.823 -1.14111e-11 0.00401708 -5.89748e-11
1276 1 16.921 15.3518 0 -114.785 -114.793 -114.748 -9.82666e-11 -0.00756114 -3.21598e-10
1277 1 15.3094 15.3518 2.27903 -114.808 -114.803 -114.823 7.34541e-11 0.00401708 1.74903e-10
1278 1 18.5325 15.3518 4.55806 -114.808 -114.803 -114.823 1.08941e-10 0.00401708 2.0337e-10
145 1 0 16.7474 0 -114.785 -114.793 -114.748 -1.42578e-10 -0.00756114 -3.16841e-11
146 1 3.22304 16.7474 2.27903 -114.808 -114.803 -114.823 3.07448e-10 0.00401708 1.10523e-10
147 1 1.61152 16.7474 4.55806 -114.808 -114.803 -114.823 -1.94779e-11 0.00401708 -2.52504e-10
148 1 2.41728 18.143 0 -114.785 -114.793 -114.748 -4.75261e-11 -0.00756114 -8.71312e-11
149 1 0.80576 18.143 2.27903 -114.808 -114.803 -114.823 2.29942e-10 0.00401708 -1.57925e-10
150 1 4.0288 18.143 4.55806 -114.808 -114.803 -114.823 3.01773e-10 0.00401708 2.06061e-10
169 1 0 19.5386 0 -114.785 -114.793 -114.748 3.76248e-11 -0.00756114 -2.55453e-10
170 1 3.22304 19.5386 2.27903 -114.808 -114.803 -114.823 7.8746e-11 0.00401708 3.12138e-10
171 1 1.61152 19.5386 4.55806 -114.808 -114.803 -114.823 -1.33643e-10 0.00401708 -1.13731e-10
172 1 2.41728 20.9342 0 -114.785 -114.793 -114.748 9.90127e-12 -0.00756114 -7.92102e-12
173 1 0.80576 20.9342 2.27903 -114.808 -114.803 -114.823 1.66341e-10 0.00401708 -1.44559e-10
174 1 4.0288 20.9342 4.55806 -114.808 -114.803 -114.823 3.09856e-10 0.00401708 1.7349e-10
529 1 4.83456 16.7474 0 -114.785 -114.793 -114.748 1.27695e-10 -0.00756114 -2.40415e-10
531 1 6.44608 16.7474 4.55806 -114.808 -114.803 -114.823 2.12336e-11 0.00401708 -2.43341e-10
533 1 5.64032 18.143 2.27903 -114.808 -114.803 -114.823 9.03491e-11 0.00401708 -1.51134e-10
553 1 4.83456 19.5386 0 -114.785 -114.793 -114.748 -6.33681e-11 -0.00756114 -2.69315e-10
555 1 6.44608 19.5386 4.55806 -114.808 -114.803 -114.823 1.33915e-10 0.00401708 -1.0582e-10
557 1 5.64032 20.9342 2.27903 -114.808 -114.803 -114.823 1.26736e-10 0.00401708 -1.34657e-10
530 1 8.0576 16.7474 2.27903 -114.808 -114.803 -114.823 9.32179e-11 0.00401708 1.32811e-10
532 1 7.25184 18.143 0 -114.785 -114.793 -114.748 1.25251e-10 -0.00756114 -2.83888e-12
534 1 8.86336 18.143 4.55806 -114.808 -114.803 -114.823 2.39514e-10 0.00401708 1.96243e-10
554 1 8.0576 19.5386 2.27903 -114.808 -114.803 -114.823 1.35524e-10 0.00401708 2.99645e-10
556 1 7.25184 20.9342 0 -114.785 -114.793 -114.748 1.78223e-10 -0.00756114 -1.98025e-11
558 1 8.86336 20.9342 4.55806 -114.808 -114.803 -114.823 2.44499e-10 0.00401708 1.85372e-10
913 1 9.66912 16.7474 0 -114.785 -114.793 -114.748 1.35833e-11 -0.00756114 9.24376e-11
915 1 11.2806 16.7474 4.55806 -114.808 -114.803 -114.823 -3.62936e-10 0.00401708 -3.85919e-10
916 1 12.0864 18.143 0 -114.785 -114.793 -114.748 -1.70178e-12 -0.00756114 2.1111e-10
917 1 10.4749 18.143 2.27903 -114.808 -114.803 -114.823 -2.18694e-10 0.00401708 -2.44144e-10
937 1 9.66912 19.5386 0 -114.785 -114.793 -114.748 -1.34657e-10 -0.00756114 -2.21788e-10
939 1 11.2806 19.5386 4.55806 -114.808 -114.803 -114.823 -1.85649e-11 0.00401708 -2.10773e-10
940 1 12.0864 20.9342 0 -114.785 -114.793 -114.748 1.28717e-11 -0.00756114 2.25749e-10
941 1 10.4749 20.9342 2.27903 -114.808 -114.803 -114.823 -2.53473e-10 0.00401708 -2.77236e-10
914 1 12.8922 16.7474 2.27903 -114.808 -114.803 -114.823 3.68503e-10 0.00401708 3.98173e-10
918 1 13.6979 18.143 4.55806 -114.808 -114.803 -114.823 1.62247e-10 0.00401708 1.99219e-10
938 1 12.8922 19.5386 2.27903 -114.808 -114.803 -114.823 9.52997e-12 0.00401708 2.97433e-10
942 1 13.6979 20.9342 4.55806 -114.808 -114.803 -114.823 1.77171e-10 0.00401708 1.77424e-10
1297 1 14.5037 16.7474 0 -114.785 -114.793 -114.748 2.51214e-10 -0.00756114 9.24376e-11
1298 1 17.7267 16.7474 2.27903 -114.808 -114.803 -114.823 1.28978e-10 0.00401708 1.70931e-10
1299 1 16.1152 16.7474 4.55806 -114.808 -114.803 -114.823 -1.4114e-10 0.00401708 -4.01769e-10
1300 1 16.921 18.143 0 -114.785 -114.793 -114.748 9.34123e-11 -0.00756114 2.58655e-10
1301 1 15.3094 18.143 2.27903 -114.808 -114.803 -114.823 -3.89863e-11 0.00401708 -2.55963e-10
1302 1 18.5325 18.143 4.55806 -114.808 -114.803 -114.823 1.26597e-10 0.00401708 1.66541e-10
1321 1 14.5037 19.5386 0 -114.785 -114.793 -114.748 -1.66341e-10 -0.00756114 -2.45552e-10
1322 1 17.7267 19.5386 2.27903 -114.808 -114.803 -114.823 1.26736e-10 0.00401708 3.1486e-10
1323 1 16.1152 19.5386 4.55806 -114.808 -114.803 -114.823 -1.11637e-10 0.00401708 -1.98892e-10
1324 1 16.921 20.9342 0 -114.785 -114.793 -114.748 6.33681e-11 -0.00756114 2.97038e-10
1325 1 15.3094 20.9342 2.27903 -114.808 -114.803 -114.823 -1.5842e-10 0.00401708 -2.45552e-10
1326 1 18.5325 20.9342 4.55806 -114.808 -114.803 -114.823 7.92102e-11 0.00401708 1.82183e-10
7 1 0 0 6.8371 -114.785 -114.793 -114.748 -1.90104e-10 -0.00756114 1.18815e-10
8 1 3.22304 0 9.11613 -114.808 -114.803 -114.823 1.5248e-10 0.00401708 -1.11389e-12
9 1 1.61152 0 11.3952 -114.808 -114.803 -114.823 1.98025e-10 0.00401708 7.92102e-11
10 1 2.41728 1.39562 6.8371 -114.785 -114.793 -114.748 -4.95064e-12 -0.00756114 -4.75261e-11
11 1 0.80576 1.39562 9.11613 -114.808 -114.803 -114.823 -1.18815e-11 0.00401708 -4.35656e-11
12 1 4.0288 1.39562 11.3952 -114.808 -114.803 -114.823 -9.90127e-12 0.00401708 8.31707e-11
31 1 0 2.79123 6.8371 -114.785 -114.793 -114.748 3.8388e-10 -0.00756114 -2.91007e-11
32 1 3.22304 2.79123 9.11613 -114.808 -114.803 -114.823 -1.62597e-10 0.00401708 3.73154e-11
33 1 1.61152 2.79123 11.3952 -114.808 -114.803 -114.823 -1.22776e-10 0.00401708 -6.33681e-11
34 1 2.41728 4.18685 6.8371 -114.785 -114.793 -114.748 1.91647e-11 -0.00756114 -1.1936e-11
35 1 0.80576 4.18685 9.11613 -114.808 -114.803 -114.823 -9.39924e-11 0.00401708 1.64485e-10
36 1 4.0288 4.18685 11.3952 -114.808 -114.803 -114.823 2.01986e-10 0.00401708 2.29709e-10
55 1 0 5.58247 6.8371 -114.785 -114.793 -114.748 -1.45013e-11 -0.00756114 1.73579e-11
56 1 3.22304 5.58247 9.11613 -114.808 -114.803 -114.823 8.75644e-12 0.00401708 3.47782e-11
57 1 1.61152 5.58247 11.3952 -114.808 -114.803 -114.823 3.96051e-11 0.00401708 -3.16841e-11
391 1 4.83456 0 6.8371 -114.785 -114.793 -114.748 1.26736e-10 -0.00756114 -1.5842e-10
393 1 6.44608 0 11.3952 -114.808 -114.803 -114.823 -1.5842e-10 0.00401708 -1.10894e-10
395 1 5.64032 1.39562 9.11613 -114.808 -114.803 -114.823 -2.05946e-10 0.00401708 2.85157e-10
415 1 4.83456 2.79123 6.8371 -114.785 -114.793 -114.748 -8.24281e-11 -0.00756114 3.43141e-10
417 1 6.44608 2.79123 11.3952 -114.808 -114.803 -114.823 2.27729e-10 0.00401708 1.73601e-10
419 1 5.64032 4.18685 9.11613 -114.808 -114.803 -114.823 1.50685e-10 0.00401708 1.23132e-10
439 1 4.83456 5.58247 6.8371 -114.785 -114.793 -114.748 1.65295e-11 -0.00756114 -1.87921e-11
441 1 6.44608 5.58247 11.3952 -114.808 -114.803 -114.823 6.82027e-11 0.00401708 -7.48264e-11
392 1 8.0576 0 9.11613 -114.808 -114.803 -114.823 -4.78974e-11 0.00401708 -2.21355e-10
394 1 7.25184 1.39562 6.8371 -114.785 -114.793 -114.748 -1.83174e-11 -0.00756114 2.72285e-12
396 1 8.86336 1.39562 11.3952 -114.808 -114.803 -114.823 -7.92102e-12 0.00401708 2.57433e-11
416 1 8.0576 2.79123 9.11613 -114.808 -114.803 -114.823 1.09069e-10 0.00401708 3.6005e-10
418 1 7.25184 4.18685 6.8371 -114.785 -114.793 -114.748 2.2431e-10 -0.00756114 3.23623e-10
420 1 8.86336 4.18685 11.3952 -114.808 -114.803 -114.823 2.12078e-10 0.00401708 2.40799e-10
440 1 8.0576 5.58247 9.11613 -114.808 -114.803 -114.823 1.09227e-11 0.00401708 1.7564e-11
775 1 9.66912 0 6.8371 -114.785 -114.793 -114.748 0 -0.00756114 9.50522e-11
777 1 11.2806 0 11.3952 -114.808 -114.803 -114.823 -4.75261e-11 0.00401708 2.93078e-10
778 1 12.0864 1.39562 6.8371 -114.785 -114.793 -114.748 3.24267e-11 -0.00756114 -7.21555e-11
779 1 10.4749 1.39562 9.11613 -114.808 -114.803 -114.823 -2.45552e-10 0.00401708 3.00999e-10
799 1 9.66912 2.79123 6.8371 -114.785 -114.793 -114.748 3.21791e-12 -0.00756114 -1.18196e-11
801 1 11.2806 2.79123 11.3952 -114.808 -114.803 -114.823 -9.15867e-12 0.00401708 -3.96712e-10
802 1 12.0864 4.18685 6.8371 -114.785 -114.793 -114.748 -9.14785e-11 -0.00756114 -1.69598e-11
803 1 10.4749 4.18685 9.11613 -114.808 -114.803 -114.823 -6.65706e-11 0.00401708 -2.09141e-10
823 1 9.66912 5.58247 6.8371 -114.785 -114.793 -114.748 -1.14628e-11 -0.00756114 2.41614e-11
825 1 11.2806 5.58247 11.3952 -114.808 -114.803 -114.823 2.06766e-11 0.00401708 2.02257e-11
776 1 12.8922 0 9.11613 -114.808 -114.803 -114.823 7.99528e-11 0.00401708 1.43568e-11
780 1 13.6979 1.39562 11.3952 -114.808 -114.803 -114.823 7.92102e-12 0.00401708 9.50522e-11
800 1 12.8922 2.79123 9.11613 -114.808 -114.803 -114.823 -7.71371e-11 0.00401708 4.38209e-11
804 1 13.6979 4.18685 11.3952 -114.808 -114.803 -114.823 1.32816e-10 0.00401708 2.17036e-10
824 1 12.8922 5.58247 9.11613 -114.808 -114.803 -114.823 3.46701e-11 0.00401708 3.27694e-11
1159 1 14.5037 0 6.8371 -114.785 -114.793 -114.748 9.50522e-11 -0.00756114 3.16841e-11
1160 1 17.7267 0 9.11613 -114.808 -114.803 -114.823 -1.50499e-10 0.00401708 -2.27729e-10
1161 1 16.1152 0 11.3952 -114.808 -114.803 -114.823 3.16841e-11 0.00401708 2.85157e-10
1162 1 16.921 1.39562 6.8371 -114.785 -114.793 -114.748 -2.78473e-11 -0.00756114 6.55959e-12
1163 1 15.3094 1.39562 9.11613 -114.808 -114.803 -114.823 -1.82183e-10 0.00401708 3.00999e-10
1164 1 18.5325 1.39562 11.3952 -114.808 -114.803 -114.823 1.78223e-11 0.00401708 -3.96051e-12
1183 1 14.5037 2.79123 6.8371 -114.785 -114.793 -114.748 -4.13378e-11 -0.00756114 -2.72285e-11
1184 1 17.7267 2.79123 9.11613 -114.808 -114.803 -114.823 1.19542e-10 0.00401708 3.54767e-10
1185 1 16.1152 2.79123 11.3952 -114.808 -114.803 -114.823 -1.08419e-10 0.00401708 -3.33127e-10
1186 1 16.921 4.18685 6.8371 -114.785 -114.793 -114.748 -4.30125e-11 -0.00756114 2.56079e-11
1187 1 15.3094 4.18685 9.11613 -114.808 -114.803 -114.823 -8.85081e-11 0.00401708 -2.29176e-10
1188 1 18.5325 4.18685 11.3952 -114.808 -114.803 -114.823 1.07104e-10 0.00401708 2.30893e-10
1207 1 14.5037 5.58247 6.8371 -114.785 -114.793 -114.748 4.62188e-13 -0.00756114 5.58489e-11
1208 1 17.7267 5.58247 9.11613 -114.808 -114.803 -114.823 4.60328e-11 0.00401708 1.05093e-11
1209 1 16.1152 5.58247 11.3952 -114.808 -114.803 -114.823 4.24739e-11 0.00401708 -1.14465e-11
58 1 2.41728 6.97808 6.8371 -114.785 -114.793 -114.748 -1.25202e-11 -0.00756114 2.33499e-11
59 1 0.80576 6.97808 9.11613 -114.808 -114.803 -114.823 -5.88816e-11 0.00401708 -1.67146e-10
60 1 4.0288 6.97808 11.3952 -114.808 -114.803 -114.823 -2.61394e-10 0.00401708 -1.26736e-10
79 1 0 8.3737 6.8371 -114.785 -114.793 -114.748 -2.28368e-10 -0.00756114 -4.89226e-11
80 1 3.22304 8.3737 9.11613 -114.808 -114.803 -114.823 -1.40505e-10 0.00401708 -8.84926e-11
81 1 1.61152 8.3737 11.3952 -114.808 -114.803 -114.823 -1.5842e-11 0.00401708 -9.50522e-11
82 1 2.41728 9.76932 6.8371 -114.785 -114.793 -114.748 -4.02429e-11 -0.00756114 -7.2957e-12
83 1 0.80576 9.76932 9.11613 -114.808 -114.803 -114.823 -4.98776e-11 0.00401708 4.41225e-11
84 1 4.0288 9.76932 11.3952 -114.808 -114.803 -114.823 7.52497e-11 0.00401708 2.3763e-11
103 1 0 11.1649 6.8371 -114.785 -114.793 -114.748 -5.60867e-11 -0.00756114 -3.7101e-11
104 1 3.22304 11.1649 9.11613 -114.808 -114.803 -114.823 3.09415e-12 0.00401708 -2.22779e-12
105 1 1.61152 11.1649 11.3952 -114.808 -114.803 -114.823 6.73286e-11 0.00401708 -3.16841e-11
443 1 5.64032 6.97808 9.11613 -114.808 -114.803 -114.823 -2.78786e-10 0.00401708 2.72061e-12
463 1 4.83456 8.3737 6.8371 -114.785 -114.793 -114.748 -1.45197e-10 -0.00756114 -3.11003e-11
465 1 6.44608 8.3737 11.3952 -114.808 -114.803 -114.823 -2.69315e-10 0.00401708 0
467 1 5.64032 9.76932 9.11613 -114.808 -114.803 -114.823 6.18829e-14 0.00401708 -2.30205e-11
487 1 4.83456 11.1649 6.8371 -114.785 -114.793 -114.748 3.32142e-12 -0.00756114 3.81486e-11
489 1 6.44608 11.1649 11.3952 -114.808 -114.803 -114.823 4.75261e-11 0.00401708 -3.16841e-11
442 1 7.25184 6.97808 6.8371 -114.785 -114.793 -114.748 -2.96921e-10 -0.00756114 2.36444e-11
444 1 8.86336 6.97808 11.3952 -114.808 -114.803 -114.823 -2.57396e-10 0.00401708 -1.10894e-10
464 1 8.0576 8.3737 9.11613 -114.808 -114.803 -114.823 -2.36702e-11 0.00401708 -7.5621e-11
466 1 7.25184 9.76932 6.8371 -114.785 -114.793 -114.748 -2.24206e-11 -0.00756114 1.64673e-11
468 1 8.86336 9.76932 11.3952 -114.808 -114.803 -114.823 -3.96051e-12 0.00401708 -7.92102e-12
488 1 8.0576 11.1649 9.11613 -114.808 -114.803 -114.823 3.20244e-11 0.00401708 -1.29954e-11
826 1 12.0864 6.97808 6.8371 -114.785 -114.793 -114.748 6.74631e-11 -0.00756114 7.11637e-11
827 1 10.4749 6.97808 9.11613 -114.808 -114.803 -114.823 8.96469e-11 0.00401708 8.56437e-11
847 1 9.66912 8.3737 6.8371 -114.785 -114.793 -114.748 -1.05399e-11 -0.00756114 1.44474e-11
849 1 11.2806 8.3737 11.3952 -114.808 -114.803 -114.823 4.75261e-11 0.00401708 3.16841e-11
850 1 12.0864 9.76932 6.8371 -114.785 -114.793 -114.748 -7.57239e-12 -0.00756114 -1.22405e-11
851 1 10.4749 9.76932 9.11613 -114.808 -114.803 -114.823 2.88529e-11 0.00401708 -4.88875e-12
871 1 9.66912 11.1649 6.8371 -114.785 -114.793 -114.748 3.50055e-11 -0.00756114 6.46262e-12
873 1 11.2806 11.1649 11.3952 -114.808 -114.803 -114.823 5.94076e-11 0.00401708 0
828 1 13.6979 6.97808 11.3952 -114.808 -114.803 -114.823 7.94477e-12 0.00401708 -4.75261e-11
848 1 12.8922 8.3737 9.11613 -114.808 -114.803 -114.823 8.23043e-12 0.00401708 3.62634e-11
852 1 13.6979 9.76932 11.3952 -114.808 -114.803 -114.823 0 0.00401708 1.5842e-11
872 1 12.8922 11.1649 9.11613 -114.808 -114.803 -114.823 3.26123e-11 0.00401708 3.25504e-11
1210 1 16.921 6.97808 6.8371 -114.785 -114.793 -114.748 -3.84264e-12 -0.00756114 5.53265e-11
1211 1 15.3094 6.97808 9.11613 -114.808 -114.803 -114.823 6.1802e-11 0.00401708 1.17452e-10
1212 1 18.5325 6.97808 11.3952 -114.808 -114.803 -114.823 1.58788e-11 0.00401708 -8.11904e-11
1231 1 14.5037 8.3737 6.8371 -114.785 -114.793 -114.748 4.68865e-11 -0.00756114 5.85667e-13
1232 1 17.7267 8.3737 9.11613 -114.808 -114.803 -114.823 2.50626e-11 0.00401708 -4.87638e-11
1233 1 16.1152 8.3737 11.3952 -114.808 -114.803 -114.823 7.52497e-11 0.00401708 6.33681e-11
1234 1 16.921 9.76932 6.8371 -114.785 -114.793 -114.748 -1.64799e-11 -0.00756114 1.61544e-12
1235 1 15.3094 9.76932 9.11613 -114.808 -114.803 -114.823 4.79438e-11 0.00401708 1.75129e-11
1236 1 18.5325 9.76932 11.3952 -114.808 -114.803 -114.823 1.5842e-11 0.00401708 -3.96051e-12
1255 1 14.5037 11.1649 6.8371 -114.785 -114.793 -114.748 -1.64821e-11 -0.00756114 3.81486e-11
1256 1 17.7267 11.1649 9.11613 -114.808 -114.803 -114.823 4.88875e-12 0.00401708 -1.31192e-11
1257 1 16.1152 11.1649 11.3952 -114.808 -114.803 -114.823 2.3763e-11 0.00401708 0
106 1 2.41728 12.5605 6.8371 -114.785 -114.793 -114.748 1.91639e-11 -0.00756114 -4.37366e-12
107 1 0.80576 12.5605 9.11613 -114.808 -114.803 -114.823 -9.80845e-12 0.00401708 3.66966e-11
108 1 4.0288 12.5605 11.3952 -114.808 -114.803 -114.823 -1.98025e-11 0.00401708 2.3763e-11
127 1 0 13.9562 6.8371 -114.785 -114.793 -114.748 -5.60857e-11 -0.00756114 5.64401e-13
128 1 3.22304 13.9562 9.11613 -114.808 -114.803 -114.823 1.98025e-11 0.00401708 6.13879e-11
129 1 1.61152 13.9562 11.3952 -114.808 -114.803 -114.823 7.92102e-12 0.00401708 0
130 1 2.41728 15.3518 6.8371 -114.785 -114.793 -114.748 1.26611e-11 -0.00756114 6.85796e-11
131 1 0.80576 15.3518 9.11613 -114.808 -114.803 -114.823 -9.8301e-11 0.00401708 -3.32002e-10
132 1 4.0288 15.3518 11.3952 -114.808 -114.803 -114.823 -2.3763e-11 0.00401708 1.82183e-10
491 1 5.64032 12.5605 9.11613 -114.808 -114.803 -114.823 5.94076e-12 0.00401708 3.29217e-11
511 1 4.83456 13.9562 6.8371 -114.785 -114.793 -114.748 -1.4633e-11 -0.00756114 -8.46683e-12
513 1 6.44608 13.9562 11.3952 -114.808 -114.803 -114.823 -5.03033e-13 0.00401708 -5.00676e-11
515 1 5.64032 15.3518 9.11613 -114.808 -114.803 -114.823 -1.89109e-10 0.00401708 -2.2679e-10
490 1 7.25184 12.5605 6.8371 -114.785 -114.793 -114.748 1.91639e-11 -0.00756114 1.74082e-11
492 1 8.86336 12.5605 11.3952 -114.808 -114.803 -114.823 5.14866e-11 0.00401708 1.5842e-11
512 1 8.0576 13.9562 9.11613 -114.808 -114.803 -114.823 8.78189e-12 0.00401708 4.17091e-11
514 1 7.25184 15.3518 6.8371 -114.785 -114.793 -114.748 -1.93985e-10 -0.00756114 3.64284e-11
516 1 8.86336 15.3518 11.3952 -114.808 -114.803 -114.823 -6.00038e-11 0.00401708 1.67589e-10
874 1 12.0864 12.5605 6.8371 -114.785 -114.793 -114.748 3.50059e-11 -0.00756114 1.74091e-11
875 1 10.4749 12.5605 9.11613 -114.808 -114.803 -114.823 3.77022e-11 0.00401708 2.08546e-11
895 1 9.66912 13.9562 6.8371 -114.785 -114.793 -114.748 2.79425e-11 -0.00756114 -1.54016e-11
897 1 11.2806 13.9562 11.3952 -114.808 -114.803 -114.823 -6.4438e-12 0.00401708 -1.83835e-11
898 1 12.0864 15.3518 6.8371 -114.785 -114.793 -114.748 2.17945e-10 -0.00756114 -2.17031e-10
899 1 10.4749 15.3518 9.11613 -114.808 -114.803 -114.823 1.99101e-10 0.00401708 -1.79441e-10
876 1 13.6979 12.5605 11.3952 -114.808 -114.803 -114.823 4.75261e-11 0.00401708 -1.5842e-11
896 1 12.8922 13.9562 9.11613 -114.808 -114.803 -114.823 4.04785e-12 0.00401708 9.90127e-12
900 1 13.6979 15.3518 11.3952 -114.808 -114.803 -114.823 -1.19411e-10 0.00401708 1.51747e-10