 vasp.5.4.4.18Apr17-6-g9f103f2a35 (build Nov 06 2023 00:46:14) complex          
  
 executed on             LinuxIFC date 2025.07.22  13:18:49
 running on   56 total cores
 distrk:  each k-point on   56 cores,    1 groups
 distr:  one band on NCORES_PER_BAND=   8 cores,    7 groups


--------------------------------------------------------------------------------------------------------


 INCAR:
 POTCAR:    PAW_PBE Pt 04Feb2005                  
 POTCAR:    PAW_PBE O 08Apr2002                   
 POTCAR:    PAW_PBE Pt 04Feb2005                  
   VRHFIN =Pt: s1d9                                                             
   LEXCH  = PE                                                                  
   EATOM  =   729.1176 eV,   53.5886 Ry                                         
                                                                                
   TITEL  = PAW_PBE Pt 04Feb2005                                                
   LULTRA =        F    use ultrasoft PP ?                                      
   IUNSCR =        1    unscreen: 0-lin 1-nonlin 2-no                           
   RPACOR =    2.330    partial core radius                                     
   POMASS =  195.080; ZVAL   =   10.000    mass and valenz                      
   RCORE  =    2.600    outmost cutoff radius                                   
   RWIGS  =    2.750; RWIGS  =    1.455    wigner-seitz radius (au A)           
   ENMAX  =  230.283; ENMIN  =  172.712 eV                                      
   ICORE  =        3    local potential                                         
   LCOR   =        T    correct aug charges                                     
   LPAW   =        T    paw PP                                                  
   EAUG   =  358.966                                                            
   DEXC   =    0.000                                                            
   RMAX   =    2.658    core radius for proj-oper                               
   RAUG   =    1.300    factor for augmentation sphere                          
   RDEP   =    2.761    radius for radial grids                                 
   RDEPT  =    2.203    core radius for aug-charge                              
                                                                                
   Atomic configuration                                                         
   16 entries                                                                   
     n  l   j            E        occ.                                          
     1  0  0.50    -78401.1885   2.0000                                         
     2  0  0.50    -13770.7750   2.0000                                         
     2  1  1.50    -11931.0468   6.0000                                         
     3  0  0.50     -3234.7234   2.0000                                         
     3  1  1.50     -2699.2216   6.0000                                         
     3  2  2.50     -2119.5714  10.0000                                         
     4  0  0.50      -695.1528   2.0000                                         
     4  1  1.50      -519.6034   6.0000                                         
     4  2  2.50      -306.6786  10.0000                                         
     4  3  3.50       -70.1041  14.0000                                         
     5  0  0.50      -101.7747   2.0000                                         
     5  1  1.50       -55.9873   6.0000                                         
     5  2  2.50        -6.1423   9.0000                                         
     6  0  0.50        -5.6573   1.0000                                         
     6  1  1.50        -6.8029   0.0000                                         
     5  3  2.50        -1.3606   0.0000                                         
   Description                                                                  
     l       E           TYP  RCUT    TYP  RCUT                                 
     2     -6.1423404     23  2.500                                             
     2     -7.5029230     23  2.500                                             
     0     -5.6573207     23  2.500                                             
     0      0.7416693     23  2.500                                             
     1     -2.7211652     23  2.600                                             
     1     20.4087390     23  2.600                                             
     3     -1.3605826     23  2.500                                             
  local pseudopotential read in
  partial core-charges read in
  partial kinetic energy density read in
  atomic valenz-charges read in
  non local Contribution for L=           2  read in
    real space projection operators read in
  non local Contribution for L=           2  read in
    real space projection operators read in
  non local Contribution for L=           0  read in
    real space projection operators read in
  non local Contribution for L=           0  read in
    real space projection operators read in
  non local Contribution for L=           1  read in
    real space projection operators read in
  non local Contribution for L=           1  read in
    real space projection operators read in
    PAW grid and wavefunctions read in
 
   number of l-projection  operators is LMAX  =           6
   number of lm-projection operators is LMMAX =          18
 
 POTCAR:    PAW_PBE O 08Apr2002                   
   VRHFIN =O: s2p4                                                              
   LEXCH  = PE                                                                  
   EATOM  =   432.3788 eV,   31.7789 Ry                                         
                                                                                
   TITEL  = PAW_PBE O 08Apr2002                                                 
   LULTRA =        F    use ultrasoft PP ?                                      
   IUNSCR =        1    unscreen: 0-lin 1-nonlin 2-no                           
   RPACOR =    1.200    partial core radius                                     
   POMASS =   16.000; ZVAL   =    6.000    mass and valenz                      
   RCORE  =    1.520    outmost cutoff radius                                   
   RWIGS  =    1.550; RWIGS  =    0.820    wigner-seitz radius (au A)           
   ENMAX  =  400.000; ENMIN  =  300.000 eV                                      
   ICORE  =        2    local potential                                         
   LCOR   =        T    correct aug charges                                     
   LPAW   =        T    paw PP                                                  
   EAUG   =  605.392                                                            
   DEXC   =    0.000                                                            
   RMAX   =    1.553    core radius for proj-oper                               
   RAUG   =    1.300    factor for augmentation sphere                          
   RDEP   =    1.550    radius for radial grids                                 
   RDEPT  =    1.329    core radius for aug-charge                              
                                                                                
   Atomic configuration                                                         
    4 entries                                                                   
     n  l   j            E        occ.                                          
     1  0  0.50      -514.6923   2.0000                                         
     2  0  0.50       -23.9615   2.0000                                         
     2  1  0.50        -9.0305   4.0000                                         
     3  2  1.50        -9.5241   0.0000                                         
   Description                                                                  
     l       E           TYP  RCUT    TYP  RCUT                                 
     0    -23.9615318     23  1.200                                             
     0     -9.5240782     23  1.200                                             
     1     -9.0304911     23  1.520                                             
     1      8.1634956     23  1.520                                             
     2     -9.5240782      7  1.500                                             
  local pseudopotential read in
  partial core-charges read in
  partial kinetic energy density read in
  kinetic energy density of atom read in
  atomic valenz-charges read in
  non local Contribution for L=           0  read in
    real space projection operators read in
  non local Contribution for L=           0  read in
    real space projection operators read in
  non local Contribution for L=           1  read in
    real space projection operators read in
  non local Contribution for L=           1  read in
    real space projection operators read in
    PAW grid and wavefunctions read in
 
   number of l-projection  operators is LMAX  =           4
   number of lm-projection operators is LMMAX =           8
 
 Optimization of the real space projectors (new method)

 maximal supplied QI-value         = 14.36
 optimisation between [QCUT,QGAM] = [ 10.77, 21.69] = [ 32.49,131.70] Ry 
 Optimized for a Real-space Cutoff    1.46 Angstroem

   l    n(q)    QCUT    max X(q) W(low)/X(q) W(high)/X(q)  e(spline) 
   2      9    10.771    66.195    0.13E-03    0.31E-03    0.27E-06
   2      9    10.771    64.643    0.13E-03    0.32E-03    0.28E-06
   0     10    10.771    95.520    0.41E-04    0.13E-03    0.15E-06
   0     10    10.771    63.403    0.40E-04    0.12E-03    0.14E-06
   1      9    10.771    19.961    0.42E-03    0.19E-03    0.28E-06
   1      9    10.771    13.289    0.35E-03    0.16E-03    0.23E-06
 Optimization of the real space projectors (new method)

 maximal supplied QI-value         = 24.76
 optimisation between [QCUT,QGAM] = [ 10.64, 21.54] = [ 31.73,129.89] Ry 
 Optimized for a Real-space Cutoff    1.23 Angstroem

   l    n(q)    QCUT    max X(q) W(low)/X(q) W(high)/X(q)  e(spline) 
   0      8    10.645    20.381    0.38E-03    0.60E-03    0.15E-06
   0      8    10.645    15.268    0.40E-03    0.65E-03    0.17E-06
   1      7    10.645     5.964    0.30E-03    0.63E-03    0.18E-06
   1      7    10.645     5.382    0.24E-03    0.53E-03    0.16E-06
  PAW_PBE Pt 04Feb2005                  :
 energy of atom  1       EATOM= -729.1176
 kinetic energy error for atom=    0.0051 (will be added to EATOM!!)
  PAW_PBE O 08Apr2002                   :
 energy of atom  2       EATOM= -432.3788
 kinetic energy error for atom=    0.0389 (will be added to EATOM!!)
 
 
 POSCAR: Pt  O                                   
  positions in cartesian coordinates
  No initial velocities read in
 exchange correlation table for  LEXCH =        8
   RHO(1)=    0.500       N(1)  =     2000
   RHO(2)=  100.500       N(2)  =     4000

 VTST: version 3.2, (02/03/18)

 CHAIN: initializing optimizer
 
 OPT: Using VASP QUASI-newton optimizer
 CHAIN: Read ICHAIN            0
 
 POSCAR: Pt  O                                   
  positions in cartesian coordinates
  No initial velocities read in
 


--------------------------------------------------------------------------------------------------------


 ion  position               nearest neighbor table
   1  0.000  0.000  0.000-  34 2.81  29 2.81   5 2.81   4 2.81  28 2.81  36 2.81  60 2.81  25 2.81
                             9 2.81
   2  0.333  0.000  0.092-   6 2.79  30 2.79   3 2.79  33 2.81   4 2.81  28 2.81   5 2.81  29 2.81
                            37 2.81  61 2.81  10 2.81  26 2.81
   3  0.167  0.000  0.182-   5 2.79  29 2.79   2 2.79   6 2.81  30 2.81  38 2.81  62 2.81  11 2.81
                            27 2.81   7 2.82   8 2.82  32 2.82
   4  0.250  0.125  0.000-   5 2.81   2 2.81  10 2.81   9 2.81   1 2.81  33 2.81  41 2.81  12 2.81
                            28 2.81
   5  0.083  0.125  0.092-   3 2.79  11 2.79  38 2.79   4 2.81   1 2.81   9 2.81   2 2.81  34 2.81
                            10 2.81  42 2.81  29 2.81  13 2.81
   6  0.417  0.125  0.182-   2 2.79  10 2.79  37 2.79  11 2.81  35 2.81   3 2.81  43 2.81  30 2.81
                            14 2.81   8 2.82  39 2.82  47 2.82
   7  0.000  0.000  0.275-   8 2.81  32 2.81  40 2.81  64 2.81  31 2.81  15 2.81   3 2.82  62 2.82
                            38 2.82
   8  0.250  0.125  0.275-  65 2.02  15 2.81  39 2.81  47 2.81   7 2.81  32 2.81  16 2.81   6 2.82
                             3 2.82  11 2.82
   9  0.000  0.250  0.000-  42 2.81  13 2.81   5 2.81   4 2.81  36 2.81  12 2.81  44 2.81  17 2.81
                             1 2.81
  10  0.333  0.250  0.092-   6 2.79  14 2.79  11 2.79  41 2.81   4 2.81  12 2.81   5 2.81  37 2.81
                            13 2.81  45 2.81  18 2.81   2 2.81
  11  0.167  0.250  0.182-   5 2.79  13 2.79  10 2.79   6 2.81  14 2.81  38 2.81  46 2.81   3 2.81
                            19 2.81  15 2.82  16 2.82   8 2.82
  12  0.250  0.375  0.000-  13 2.81  10 2.81  18 2.81  17 2.81   9 2.81  41 2.81  49 2.81   4 2.81
                            20 2.81
  13  0.083  0.375  0.092-  11 2.79  19 2.79  46 2.79  12 2.81   9 2.81  17 2.81  10 2.81  42 2.81
                            18 2.81  50 2.81  21 2.81   5 2.81
  14  0.417  0.375  0.182-  10 2.79  18 2.79  45 2.79  19 2.81  43 2.81  11 2.81  51 2.81  22 2.81
                             6 2.81  16 2.82  47 2.82  55 2.82
  15  0.000  0.250  0.275-   8 2.81  16 2.81  40 2.81  48 2.81   7 2.81  23 2.81  11 2.82  46 2.82
                            38 2.82
  16  0.250  0.375  0.275-  65 2.02  66 2.02  47 2.81  55 2.81  15 2.81  23 2.81   8 2.81  24 2.81
                            14 2.82  11 2.82  19 2.82
  17  0.000  0.500  0.000-  50 2.81  21 2.81  13 2.81  12 2.81  44 2.81  20 2.81  52 2.81  25 2.81
                             9 2.81
  18  0.333  0.500  0.092-  14 2.79  22 2.79  19 2.79  49 2.81  12 2.81  20 2.81  13 2.81  45 2.81
                            21 2.81  53 2.81  26 2.81  10 2.81
  19  0.167  0.500  0.182-  13 2.79  21 2.79  18 2.79  14 2.81  22 2.81  46 2.81  54 2.81  11 2.81
                            27 2.81  23 2.82  24 2.82  16 2.82
  20  0.250  0.625  0.000-  21 2.81  18 2.81  26 2.81  25 2.81  17 2.81  49 2.81  57 2.81  12 2.81
                            28 2.81
  21  0.083  0.625  0.092-  19 2.79  27 2.79  54 2.79  20 2.81  17 2.81  25 2.81  18 2.81  50 2.81
                            26 2.81  58 2.81  29 2.81  13 2.81
  22  0.417  0.625  0.182-  18 2.79  26 2.79  53 2.79  27 2.81  51 2.81  19 2.81  59 2.81  30 2.81
                            14 2.81  24 2.82  55 2.82  63 2.82
  23  0.000  0.500  0.275-  16 2.81  24 2.81  48 2.81  56 2.81  15 2.81  31 2.81  19 2.82  54 2.82
                            46 2.82
  24  0.250  0.625  0.275-  66 2.02  31 2.81  55 2.81  63 2.81  23 2.81  32 2.81  16 2.81  22 2.82
                            27 2.82  19 2.82
  25  0.000  0.750  0.000-  58 2.81  29 2.81  21 2.81  20 2.81  52 2.81  28 2.81  60 2.81  17 2.81
                             1 2.81
  26  0.333  0.750  0.092-  22 2.79  30 2.79  27 2.79  57 2.81  20 2.81  28 2.81  21 2.81  53 2.81
                            29 2.81  61 2.81   2 2.81  18 2.81
  27  0.167  0.750  0.182-  21 2.79  29 2.79  26 2.79  22 2.81  30 2.81  54 2.81  62 2.81  19 2.81
                             3 2.81  31 2.82  24 2.82  32 2.82
  28  0.250  0.875  0.000-  29 2.81  26 2.81   2 2.81   1 2.81  25 2.81  33 2.81  57 2.81  20 2.81
                             4 2.81
  29  0.083  0.875  0.092-   3 2.79  27 2.79  62 2.79  28 2.81  25 2.81   1 2.81  26 2.81  34 2.81
                            58 2.81   2 2.81  21 2.81   5 2.81
  30  0.417  0.875  0.182-   2 2.79  26 2.79  61 2.79  27 2.81  35 2.81  59 2.81   3 2.81  22 2.81
                             6 2.81  32 2.82  39 2.82  63 2.82
  31  0.000  0.750  0.275-  24 2.81  32 2.81  56 2.81  64 2.81   7 2.81  23 2.81  27 2.82  62 2.82
                            54 2.82
  32  0.250  0.875  0.275-   7 2.81  31 2.81  39 2.81  63 2.81  24 2.81   8 2.81  30 2.82   3 2.82
                            27 2.82
  33  0.500  0.000  0.000-   2 2.81  37 2.81  61 2.81  36 2.81   4 2.81  60 2.81  28 2.81  41 2.81
                            57 2.81
  34  0.833  0.000  0.092-  38 2.79  62 2.79  35 2.79   1 2.81  60 2.81  36 2.81   5 2.81  29 2.81
                            61 2.81  37 2.81  58 2.81  42 2.81
  35  0.667  0.000  0.182-  37 2.79  61 2.79  34 2.79  30 2.81  38 2.81   6 2.81  62 2.81  43 2.81
                            59 2.81  39 2.82  40 2.82  64 2.82
  36  0.750  0.125  0.000-  37 2.81  34 2.81  42 2.81   1 2.81   9 2.81  41 2.81  33 2.81  44 2.81
                            60 2.81
  37  0.583  0.125  0.092-  35 2.79  43 2.79   6 2.79  36 2.81  41 2.81  33 2.81   2 2.81  34 2.81
                            42 2.81  10 2.81  45 2.81  61 2.81
  38  0.917  0.125  0.182-  34 2.79  42 2.79   5 2.79   3 2.81  35 2.81  11 2.81  43 2.81  46 2.81
                            62 2.81  40 2.82  15 2.82   7 2.82
  39  0.500  0.000  0.275-   8 2.81  32 2.81  40 2.81  64 2.81  63 2.81  47 2.81  35 2.82   6 2.82
                            30 2.82
  40  0.750  0.125  0.275-   7 2.81  15 2.81  39 2.81  47 2.81  48 2.81  64 2.81  38 2.82  43 2.82
                            35 2.82
  41  0.500  0.250  0.000-  10 2.81  37 2.81  45 2.81  36 2.81   4 2.81  44 2.81  12 2.81  33 2.81
                            49 2.81
  42  0.833  0.250  0.092-  38 2.79  46 2.79  43 2.79   9 2.81  44 2.81  36 2.81   5 2.81  37 2.81
                            45 2.81  13 2.81  34 2.81  50 2.81
  43  0.667  0.250  0.182-  37 2.79  45 2.79  42 2.79  38 2.81  14 2.81   6 2.81  46 2.81  35 2.81
                            51 2.81  47 2.82  48 2.82  40 2.82
  44  0.750  0.375  0.000-  45 2.81  42 2.81  50 2.81   9 2.81  17 2.81  49 2.81  41 2.81  36 2.81
                            52 2.81
  45  0.583  0.375  0.092-  43 2.79  51 2.79  14 2.79  44 2.81  49 2.81  41 2.81  10 2.81  42 2.81
                            50 2.81  18 2.81  37 2.81  53 2.81
  46  0.917  0.375  0.182-  42 2.79  50 2.79  13 2.79  11 2.81  43 2.81  19 2.81  51 2.81  38 2.81
                            54 2.81  48 2.82  23 2.82  15 2.82
  47  0.500  0.250  0.275-  65 2.02  16 2.81  40 2.81  48 2.81   8 2.81  55 2.81  39 2.81  43 2.82
                            14 2.82   6 2.82
  48  0.750  0.375  0.275-  15 2.81  23 2.81  47 2.81  55 2.81  40 2.81  56 2.81  46 2.82  43 2.82
                            51 2.82
  49  0.500  0.500  0.000-  18 2.81  45 2.81  53 2.81  44 2.81  12 2.81  52 2.81  20 2.81  41 2.81
                            57 2.81
  50  0.833  0.500  0.092-  46 2.79  54 2.79  51 2.79  17 2.81  52 2.81  44 2.81  13 2.81  45 2.81
                            53 2.81  21 2.81  42 2.81  58 2.81
  51  0.667  0.500  0.182-  45 2.79  53 2.79  50 2.79  46 2.81  22 2.81  14 2.81  54 2.81  43 2.81
                            59 2.81  55 2.82  56 2.82  48 2.82
  52  0.750  0.625  0.000-  53 2.81  50 2.81  58 2.81  17 2.81  25 2.81  57 2.81  49 2.81  44 2.81
                            60 2.81
  53  0.583  0.625  0.092-  51 2.79  59 2.79  22 2.79  52 2.81  57 2.81  49 2.81  18 2.81  50 2.81
                            58 2.81  26 2.81  45 2.81  61 2.81
  54  0.917  0.625  0.182-  50 2.79  58 2.79  21 2.79  19 2.81  51 2.81  27 2.81  59 2.81  46 2.81
                            62 2.81  56 2.82  31 2.82  23 2.82
  55  0.500  0.500  0.275-  66 2.02  24 2.81  48 2.81  56 2.81  16 2.81  63 2.81  47 2.81  51 2.82
                            22 2.82  14 2.82
  56  0.750  0.625  0.275-  23 2.81  31 2.81  55 2.81  63 2.81  48 2.81  64 2.81  54 2.82  51 2.82
                            59 2.82
  57  0.500  0.750  0.000-  26 2.81  53 2.81  61 2.81  52 2.81  20 2.81  60 2.81  28 2.81  33 2.81
                            49 2.81
  58  0.833  0.750  0.092-  54 2.79  62 2.79  59 2.79  25 2.81  60 2.81  52 2.81  21 2.81  53 2.81
                            61 2.81  29 2.81  50 2.81  34 2.81
  59  0.667  0.750  0.182-  53 2.79  61 2.79  58 2.79  54 2.81  30 2.81  22 2.81  62 2.81  51 2.81
                            35 2.81  63 2.82  56 2.82  64 2.82
  60  0.750  0.875  0.000-  61 2.81  58 2.81  34 2.81   1 2.81  57 2.81  25 2.81  33 2.81  52 2.81
                            36 2.81
  61  0.583  0.875  0.092-  35 2.79  59 2.79  30 2.79  60 2.81  33 2.81  57 2.81  26 2.81  58 2.81
                            34 2.81   2 2.81  37 2.81  53 2.81
  62  0.917  0.875  0.182-  34 2.79  58 2.79  29 2.79  27 2.81  35 2.81   3 2.81  59 2.81  38 2.81
                            54 2.81  64 2.82  31 2.82   7 2.82
  63  0.500  0.750  0.275-  24 2.81  32 2.81  56 2.81  64 2.81  39 2.81  55 2.81  59 2.82  22 2.82
                            30 2.82
  64  0.750  0.875  0.275-   7 2.81  31 2.81  39 2.81  63 2.81  56 2.81  40 2.81  62 2.82  35 2.82
                            59 2.82
  65  0.333  0.250  0.323-  47 2.02  16 2.02   8 2.02
  66  0.333  0.500  0.323-  55 2.02  24 2.02  16 2.02
 
  LATTYP: Found a simple orthorhombic cell.
 ALAT       =     9.7177920200
 B/A-ratio  =     1.1547005387
 C/A-ratio  =     2.5726008489
  
  Lattice vectors:
  
 A1 = (   9.7177920200,   0.0000000000,   0.0000000000)
 A2 = (   0.0000000000,  11.2211396800,   0.0000000000)
 A3 = (   0.0000000000,   0.0000000000,  25.0000000000)


Analysis of symmetry for initial positions (statically):
=====================================================================
 Subroutine PRICEL returns:
 Original cell was already a primitive cell.
 

 Routine SETGRP: Setting up the symmetry group for a 
 simple orthorhombic supercell.


 Subroutine GETGRP returns: Found  2 space group operations
 (whereof  1 operations were pure point group operations)
 out of a pool of  8 trial point group operations.


The static configuration has the point symmetry C_1 .
 The point group associated with its full space group is C_1h.


Analysis of symmetry for dynamics (positions and initial velocities):
=====================================================================
 Subroutine PRICEL returns:
 Original cell was already a primitive cell.
 

 Routine SETGRP: Setting up the symmetry group for a 
 simple orthorhombic supercell.


 Subroutine GETGRP returns: Found  2 space group operations
 (whereof  1 operations were pure point group operations)
 out of a pool of  8 trial point group operations.


The dynamic configuration has the point symmetry C_1 .
 The point group associated with its full space group is C_1h.


Analysis of constrained symmetry for selective dynamics:
=====================================================================
 Subroutine PRICEL returns:
 Original cell was already a primitive cell.
 

 Routine SETGRP: Setting up the symmetry group for a 
 simple orthorhombic supercell.


 Subroutine GETGRP returns: Found  2 space group operations
 (whereof  1 operations were pure point group operations)
 out of a pool of  8 trial point group operations.


The constrained configuration has the point symmetry C_1 .
 The point group associated with its full space group is C_1h.


 Subroutine INISYM returns: Found  2 space group operations
 (whereof  1 operations are pure point group operations),
 and found     1 'primitive' translations

 
 
 KPOINTS: K-Spacing Value to Generate K-Mesh: 0.03

Automatic generation of k-mesh.
Space group operators:
 irot       det(A)        alpha          n_x          n_y          n_z        tau_x        tau_y        tau_z
    1     1.000000     0.000000     1.000000     0.000000     0.000000     0.000000     0.000000     0.000000
    2    -1.000000   180.000000     0.000000     1.000000     0.000000     0.000000     0.750000     0.000000
 
 Subroutine IBZKPT returns following result:
 ===========================================
 
 Found      4 irreducible k-points:
 
 Following reciprocal coordinates:
            Coordinates               Weight
  0.000000  0.000000  0.000000      1.000000
  0.333333  0.000000  0.000000      2.000000
  0.000000  0.333333  0.000000      2.000000
  0.333333  0.333333  0.000000      4.000000
 
 Following cartesian coordinates:
            Coordinates               Weight
  0.000000  0.000000  0.000000      1.000000
  0.034301  0.000000  0.000000      2.000000
  0.000000  0.029706  0.000000      2.000000
  0.034301  0.029706  0.000000      4.000000
 


--------------------------------------------------------------------------------------------------------




 Dimension of arrays:
   k-points           NKPTS =      4   k-points in BZ     NKDIM =      4   number of bands    NBANDS=    392
   number of dos      NEDOS =    301   number of ions     NIONS =     66
   non local maximal  LDIM  =      6   non local SUM 2l+1 LMDIM =     18
   total plane-waves  NPLWV = 420000
   max r-space proj   IRMAX =   2078   max aug-charges    IRDMAX=   9530
   dimension x,y,z NGX =    50 NGY =   60 NGZ =  140
   dimension x,y,z NGXF=   100 NGYF=  120 NGZF=  280
   support grid    NGXF=   100 NGYF=  120 NGZF=  280
   ions per type =              64   2
   NGX,Y,Z   is equivalent  to a cutoff of   8.55,  8.89,  9.31 a.u.
   NGXF,Y,Z  is equivalent  to a cutoff of  17.11, 17.78, 18.62 a.u.

 SYSTEM =  Pt111 O2 adsorption system              
 POSCAR =  Pt  O                                   

 Startparameter for this run:
   NWRITE =      2    write-flag & timer
   PREC   = normal    normal or accurate (medium, high low for compatibility)
   ISTART =      0    job   : 0-new  1-cont  2-samecut
   ICHARG =      1    charge: 1-file 2-atom 10-const
   ISPIN  =      1    spin polarized calculation?
   LNONCOLLINEAR =      F non collinear calculations
   LSORBIT =      F    spin-orbit coupling
   INIWAV =      1    electr: 0-lowe 1-rand  2-diag
   LASPH  =      F    aspherical Exc in radial PAW
   METAGGA=      F    non-selfconsistent MetaGGA calc.

 Electronic Relaxation 1
   ENCUT  =  450.0 eV  33.07 Ry    5.75 a.u.  16.81 19.41 43.24*2*pi/ulx,y,z
   ENINI  =  450.0     initial cutoff
   ENAUG  =  605.4 eV  augmentation charge cutoff
   NELM   =     60;   NELMIN=  2; NELMDL= -5     # of ELM steps 
   EDIFF  = 0.1E-05   stopping-criterion for ELM
   LREAL  =      T    real-space projection
   NLSPLINE    = F    spline interpolate recip. space projectors
   LCOMPAT=      F    compatible to vasp.4.4
   GGA_COMPAT  = T    GGA compatible to vasp.4.4-vasp.4.6
   LMAXPAW     = -100 max onsite density
   LMAXMIX     =    2 max onsite mixed and CHGCAR
   VOSKOWN=      0    Vosko Wilk Nusair interpolation
   ROPT   =   -0.00050  -0.00050
 Ionic relaxation
   EDIFFG = -.2E-01   stopping-criterion for IOM
   NSW    =    200    number of steps for IOM
   NBLOCK =      1;   KBLOCK =    200    inner block; outer block 
   IBRION =      1    ionic relax: 0-MD 1-quasi-New 2-CG
   NFREE  =      0    steps in history (QN), initial steepest desc. (CG)
   ISIF   =      2    stress and relaxation
   IWAVPR =     11    prediction:  0-non 1-charg 2-wave 3-comb
   ISYM   =      2    0-nonsym 1-usesym 2-fastsym
   LCORR  =      T    Harris-Foulkes like correction to forces

   POTIM  = 0.2000    time-step for ionic-motion
   TEIN   =    0.0    initial temperature
   TEBEG  =    0.0;   TEEND  =   0.0 temperature during run
   SMASS  =  -3.00    Nose mass-parameter (am)
   estimated Nose-frequenzy (Omega)   =  0.10E-29 period in steps =****** mass=  -0.216E-26a.u.
   SCALEE = 1.0000    scale energy and forces
   NPACO  =    256;   APACO  = 16.0  distance and # of slots for P.C.
   PSTRESS=    0.0 pullay stress

  Mass of Ions in am
   POMASS = 195.08 16.00
  Ionic Valenz
   ZVAL   =  10.00  6.00
  Atomic Wigner-Seitz radii
   RWIGS  =  -1.00 -1.00
  virtual crystal weights 
   VCA    =   1.00  1.00
   NELECT =     652.0000    total number of electrons
   NUPDOWN=      -1.0000    fix difference up-down

 DOS related values:
   EMIN   =  10.00;   EMAX   =-10.00  energy-range for DOS
   EFERMI =   0.00
   ISMEAR =     0;   SIGMA  =   0.10  broadening in eV -4-tet -1-fermi 0-gaus

 Electronic relaxation 2 (details)
   IALGO  =     68    algorithm
   LDIAG  =      T    sub-space diagonalisation (order eigenvalues)
   LSUBROT=      F    optimize rotation matrix (better conditioning)
   TURBO    =      0    0=normal 1=particle mesh
   IRESTART =      0    0=no restart 2=restart with 2 vectors
   NREBOOT  =      0    no. of reboots
   NMIN     =      0    reboot dimension
   EREF     =   0.00    reference energy to select bands
   IMIX   =      4    mixing-type and parameters
     AMIX     =   0.40;   BMIX     =  1.00
     AMIX_MAG =   1.60;   BMIX_MAG =  1.00
     AMIN     =   0.10
     WC   =   100.;   INIMIX=   1;  MIXPRE=   1;  MAXMIX= -45

 Intra band minimization:
   WEIMIN = 0.0010     energy-eigenvalue tresh-hold
   EBREAK =  0.64E-09  absolut break condition
   DEPER  =   0.30     relativ break condition  

   TIME   =   0.40     timestep for ELM

  volume/ion in A,a.u.               =      41.30       278.74
  Fermi-wavevector in a.u.,A,eV,Ry     =   1.016192  1.920325 14.050008  1.032646
  Thomas-Fermi vector in A             =   2.149522
 
 Write flags
   LWAVE        =      F    write WAVECAR
   LDOWNSAMPLE  =      F    k-point downsampling of WAVECAR
   LCHARG       =      F    write CHGCAR
   LVTOT        =      F    write LOCPOT, total local potential
   LVHAR        =      F    write LOCPOT, Hartree potential only
   LELF         =      F    write electronic localiz. function (ELF)
   LORBIT       =      0    0 simple, 1 ext, 2 COOP (PROOUT), +10 PAW based schemes


 Dipole corrections
   LMONO  =      F    monopole corrections only (constant potential shift)
   LDIPOL =      T    correct potential (dipole corrections)
   IDIPOL =      3    1-x, 2-y, 3-z, 4-all directions 
   EPSILON=  1.0000000 bulk dielectric constant

 Exchange correlation treatment:
   GGA     =    PE    GGA type
   LEXCH   =     8    internal setting for exchange type
   VOSKOWN=      0    Vosko Wilk Nusair interpolation
   LHFCALC =     F    Hartree Fock is set to
   LHFONE  =     F    Hartree Fock one center treatment
   AEXX    =    0.0000 exact exchange contribution

 Linear response parameters
   LEPSILON=     F    determine dielectric tensor
   LRPA    =     F    only Hartree local field effects (RPA)
   LNABLA  =     F    use nabla operator in PAW spheres
   LVEL    =     F    velocity operator in full k-point grid
   LINTERFAST=   F  fast interpolation
   KINTER  =     0    interpolate to denser k-point grid
   CSHIFT  =0.1000    complex shift for real part using Kramers Kronig
   OMEGAMAX=  -1.0    maximum frequency
   DEG_THRESHOLD= 0.2000000E-02 threshold for treating states as degnerate
   RTIME   =   -0.100 relaxation time in fs
  (WPLASMAI=    0.000 imaginary part of plasma frequency in eV, 0.658/RTIME)
   DFIELD  = 0.0000000 0.0000000 0.0000000 field for delta impulse in time
 
 Orbital magnetization related:
   ORBITALMAG=     F  switch on orbital magnetization
   LCHIMAG   =     F  perturbation theory with respect to B field
   DQ        =  0.001000  dq finite difference perturbation B field
   LLRAUG    =     F  two centre corrections for induced B field



--------------------------------------------------------------------------------------------------------


 quasi-Newton-method for relaxation of ions
   using selective dynamics as specified on POSCAR
   WARNING: If single coordinates had been selected the selection of coordinates
            is made according to the corresponding   d i r e c t   coordinates!
            Don't support selection of single cartesian coordinates -- sorry ...
  !
 charge density and potential will be updated during run
 non-spin polarized calculation
 RMM-DIIS sequential band-by-band and
  variant of blocked Davidson during initial phase
 perform sub-space diagonalisation
    before iterative eigenvector-optimisation
 modified Broyden-mixing scheme, WC =      100.0
 initial mixing is a Kerker type mixing with AMIX =  0.4000 and BMIX =      1.0000
 Hartree-type preconditioning will be used
 using additional bands           66
 real space projection scheme for non local part
 use partial core corrections
 calculate Harris-corrections to forces 
   (improved forces if not selfconsistent)
 use gradient corrections 
 use of overlap-Matrix (Vanderbilt PP)
 Gauss-broadening in eV      SIGMA  =   0.10


--------------------------------------------------------------------------------------------------------


  energy-cutoff  :      450.00
  volume of cell :     2726.12
      direct lattice vectors                 reciprocal lattice vectors
     9.717792020  0.000000000  0.000000000     0.102904034  0.000000000  0.000000000
     0.000000000 11.221139680  0.000000000     0.000000000  0.089117508  0.000000000
     0.000000000  0.000000000 25.000000000     0.000000000  0.000000000  0.040000000

  length of vectors
     9.717792020 11.221139680 25.000000000     0.102904034  0.089117508  0.040000000


 
 k-points in units of 2pi/SCALE and weight: K-Spacing Value to Generate K-Mesh: 0.03
   0.00000000  0.00000000  0.00000000       0.111
   0.03430134  0.00000000  0.00000000       0.222
   0.00000000  0.02970584  0.00000000       0.222
   0.03430134  0.02970584  0.00000000       0.444
 
 k-points in reciprocal lattice and weights: K-Spacing Value to Generate K-Mesh: 0.03
   0.00000000  0.00000000  0.00000000       0.111
   0.33333333  0.00000000  0.00000000       0.222
   0.00000000  0.33333333  0.00000000       0.222
   0.33333333  0.33333333  0.00000000       0.444
 
 position of ions in fractional coordinates (direct lattice) 
   0.00000000  0.00000000  0.00000000
   0.33333333  0.00000000  0.09162022
   0.16666667  0.00000000  0.18239965
   0.25000000  0.12500000  0.00000000
   0.08333333  0.12500000  0.09162022
   0.41666667  0.12500000  0.18239965
   0.00000000  0.00000000  0.27454374
   0.25000000  0.12500000  0.27454374
   0.00000000  0.25000000  0.00000000
   0.33333333  0.25000000  0.09162022
   0.16666667  0.25000000  0.18239965
   0.25000000  0.37500000  0.00000000
   0.08333333  0.37500000  0.09162022
   0.41666667  0.37500000  0.18239965
   0.00000000  0.25000000  0.27454374
   0.25000000  0.37500000  0.27454374
   0.00000000  0.50000000  0.00000000
   0.33333333  0.50000000  0.09162022
   0.16666667  0.50000000  0.18239965
   0.25000000  0.62500000  0.00000000
   0.08333333  0.62500000  0.09162022
   0.41666667  0.62500000  0.18239965
   0.00000000  0.50000000  0.27454374
   0.25000000  0.62500000  0.27454374
   0.00000000  0.75000000  0.00000000
   0.33333333  0.75000000  0.09162022
   0.16666667  0.75000000  0.18239965
   0.25000000  0.87500000  0.00000000
   0.08333333  0.87500000  0.09162022
   0.41666667  0.87500000  0.18239965
   0.00000000  0.75000000  0.27454374
   0.25000000  0.87500000  0.27454374
   0.50000000  0.00000000  0.00000000
   0.83333333  0.00000000  0.09162022
   0.66666667  0.00000000  0.18239965
   0.75000000  0.12500000  0.00000000
   0.58333333  0.12500000  0.09162022
   0.91666667  0.12500000  0.18239965
   0.50000000  0.00000000  0.27454374
   0.75000000  0.12500000  0.27454374
   0.50000000  0.25000000  0.00000000
   0.83333333  0.25000000  0.09162022
   0.66666667  0.25000000  0.18239965
   0.75000000  0.37500000  0.00000000
   0.58333333  0.37500000  0.09162022
   0.91666667  0.37500000  0.18239965
   0.50000000  0.25000000  0.27454374
   0.75000000  0.37500000  0.27454374
   0.50000000  0.50000000  0.00000000
   0.83333333  0.50000000  0.09162022
   0.66666667  0.50000000  0.18239965
   0.75000000  0.62500000  0.00000000
   0.58333333  0.62500000  0.09162022
   0.91666667  0.62500000  0.18239965
   0.50000000  0.50000000  0.27454374
   0.75000000  0.62500000  0.27454374
   0.50000000  0.75000000  0.00000000
   0.83333333  0.75000000  0.09162022
   0.66666667  0.75000000  0.18239965
   0.75000000  0.87500000  0.00000000
   0.58333333  0.87500000  0.09162022
   0.91666667  0.87500000  0.18239965
   0.50000000  0.75000000  0.27454374
   0.75000000  0.87500000  0.27454374
   0.33333333  0.25000000  0.32254374
   0.33333333  0.50000000  0.32254374
 
 position of ions in cartesian coordinates  (Angst):
   0.00000000  0.00000000  0.00000000
   3.23926402  0.00000000  2.29050552
   1.61963199  0.00000000  4.55999133
   2.42944800  1.40264246  0.00000000
   0.80981602  1.40264246  2.29050552
   4.04907999  1.40264246  4.55999133
   0.00000000  0.00000000  6.86359344
   2.42944800  1.40264246  6.86359344
   0.00000000  2.80528492  0.00000000
   3.23926402  2.80528492  2.29050552
   1.61963199  2.80528492  4.55999133
   2.42944800  4.20792738  0.00000000
   0.80981602  4.20792738  2.29050552
   4.04907999  4.20792738  4.55999133
   0.00000000  2.80528492  6.86359344
   2.42944800  4.20792738  6.86359344
   0.00000000  5.61056984  0.00000000
   3.23926402  5.61056984  2.29050552
   1.61963199  5.61056984  4.55999133
   2.42944800  7.01321230  0.00000000
   0.80981602  7.01321230  2.29050552
   4.04907999  7.01321230  4.55999133
   0.00000000  5.61056984  6.86359344
   2.42944800  7.01321230  6.86359344
   0.00000000  8.41585476  0.00000000
   3.23926402  8.41585476  2.29050552
   1.61963199  8.41585476  4.55999133
   2.42944800  9.81849722  0.00000000
   0.80981602  9.81849722  2.29050552
   4.04907999  9.81849722  4.55999133
   0.00000000  8.41585476  6.86359344
   2.42944800  9.81849722  6.86359344
   4.85889601  0.00000000  0.00000000
   8.09816003  0.00000000  2.29050552
   6.47852800  0.00000000  4.55999133
   7.28834401  1.40264246  0.00000000
   5.66871203  1.40264246  2.29050552
   8.90797600  1.40264246  4.55999133
   4.85889601  0.00000000  6.86359344
   7.28834401  1.40264246  6.86359344
   4.85889601  2.80528492  0.00000000
   8.09816003  2.80528492  2.29050552
   6.47852800  2.80528492  4.55999133
   7.28834401  4.20792738  0.00000000
   5.66871203  4.20792738  2.29050552
   8.90797600  4.20792738  4.55999133
   4.85889601  2.80528492  6.86359344
   7.28834401  4.20792738  6.86359344
   4.85889601  5.61056984  0.00000000
   8.09816003  5.61056984  2.29050552
   6.47852800  5.61056984  4.55999133
   7.28834401  7.01321230  0.00000000
   5.66871203  7.01321230  2.29050552
   8.90797600  7.01321230  4.55999133
   4.85889601  5.61056984  6.86359344
   7.28834401  7.01321230  6.86359344
   4.85889601  8.41585476  0.00000000
   8.09816003  8.41585476  2.29050552
   6.47852800  8.41585476  4.55999133
   7.28834401  9.81849722  0.00000000
   5.66871203  9.81849722  2.29050552
   8.90797600  9.81849722  4.55999133
   4.85889601  8.41585476  6.86359344
   7.28834401  9.81849722  6.86359344
   3.23926402  2.80528492  8.06359344
   3.23926402  5.61056984  8.06359344
 


--------------------------------------------------------------------------------------------------------


 k-point  1 :   0.0000 0.0000 0.0000  plane waves:   59125
 k-point  2 :   0.3333 0.0000 0.0000  plane waves:   59104
 k-point  3 :   0.0000 0.3333 0.0000  plane waves:   59065
 k-point  4 :   0.3333 0.3333 0.0000  plane waves:   59114

 maximum and minimum number of plane-waves per node :      7413     7353

 maximum number of plane-waves:     59125
 maximum index in each direction: 
   IXMAX=   16   IYMAX=   19   IZMAX=   43
   IXMIN=  -17   IYMIN=  -19   IZMIN=  -43


 real space projection operators:
  total allocation   :      17904.62 KBytes
  max/ min on nodes  :       2522.75       2099.69


 parallel 3D FFT for wavefunctions:
    minimum data exchange during FFTs selected (reduces bandwidth)
 parallel 3D FFT for charge:
    minimum data exchange during FFTs selected (reduces bandwidth)


 total amount of memory used by VASP MPI-rank0    72734. kBytes
=======================================================================

   base      :      30000. kBytes
   nonlr-proj:       5410. kBytes
   fftplans  :       4000. kBytes
   grid      :       6141. kBytes
   one-center:        139. kBytes
   wavefun   :      27044. kBytes
 
     INWAV:  cpu time    0.0000: real time    0.0002
 Broyden mixing: mesh for mixing (old mesh)
   NGX = 33   NGY = 39   NGZ = 87
  (NGX  =100   NGY  =120   NGZ  =280)
  gives a total of 111969 points

 initial charge density was supplied:
 charge density of overlapping atoms calculated
 number of electron     652.0000000 magnetization 
 keeping initial charge density in first step


--------------------------------------------------------------------------------------------------------


 Maximum index for non-local projection operator          396
 Maximum index for augmentation-charges          545 (set IRDMAX)


--------------------------------------------------------------------------------------------------------


 First call to EWALD:  gamma=   0.127
 Maximum number of real-space cells 4x 3x 2
 Maximum number of reciprocal cells 2x 2x 5

    FEWALD:  cpu time    0.0050: real time    0.0053


--------------------------------------- Iteration      1(   1)  ---------------------------------------


    POTLOK:  cpu time    0.0594: real time    0.1273
    SETDIJ:  cpu time    0.0073: real time    0.0073
     EDDAV:  cpu time    9.9224: real time    9.9318
       DOS:  cpu time    0.0010: real time    0.0010
    --------------------------------------------
      LOOP:  cpu time    9.9901: real time   10.0674

 eigenvalue-minimisations  :  3136
 total energy-change (2. order) : 0.4295527E+04  (-0.2676587E+05)
 number of electron     652.0000000 magnetization 
 augmentation part      652.0000000 magnetization 

 DIPCOR: dipole corrections for dipol
 direction  3 min pos   175,
 dipolmoment           0.000000      0.000000     -0.000172 electrons x Angstroem
 Tr[quadrupol]    -12488.965193

 energy correction for charged system         0.000000 eV
 dipol+quadrupol energy correction           -0.000000 eV
 added-field ion interaction          0.003550 eV  (added to PSCEN)


 Free energy of the ion-electron system (eV)
  ---------------------------------------------------
  alpha Z        PSCENC =      1466.11450871
  Ewald energy   TEWEN  =    245988.53285936
  -Hartree energ DENC   =   -295955.01966249
  -exchange      EXHF   =         0.00000000
  -V(xc)+E(xc)   XCENC  =       271.86852075
  PAW double counting   =     45245.00522118   -43438.47517393
  entropy T*S    EENTRO =        -0.14570935
  eigenvalues    EBANDS =      3189.76950169
  atomic energy  EATOM  =     47527.87699037
  Solvation  Ediel_sol  =         0.00000000
  ---------------------------------------------------
  free energy    TOTEN  =      4295.52705630 eV

  energy without entropy =     4295.67276565  energy(sigma->0) =     4295.59991097


--------------------------------------------------------------------------------------------------------




--------------------------------------- Iteration      1(   2)  ---------------------------------------


     EDDAV:  cpu time   11.2661: real time   11.2766
       DOS:  cpu time    0.0010: real time    0.0009
    --------------------------------------------
      LOOP:  cpu time   11.2670: real time   11.2775

 eigenvalue-minimisations  :  3710
 total energy-change (2. order) :-0.4362475E+04  (-0.4028466E+04)
 number of electron     652.0000000 magnetization 
 augmentation part      652.0000000 magnetization 

 DIPCOR: dipole corrections for dipol
 direction  3 min pos   175,
 dipolmoment           0.000000      0.000000     -0.000172 electrons x Angstroem
 Tr[quadrupol]    -12488.965193

 energy correction for charged system         0.000000 eV
 dipol+quadrupol energy correction           -0.000000 eV
 added-field ion interaction          0.003550 eV  (added to PSCEN)


 Free energy of the ion-electron system (eV)
  ---------------------------------------------------
  alpha Z        PSCENC =      1466.11450871
  Ewald energy   TEWEN  =    245988.53285936
  -Hartree energ DENC   =   -295955.01966249
  -exchange      EXHF   =         0.00000000
  -V(xc)+E(xc)   XCENC  =       271.86852075
  PAW double counting   =     45245.00522118   -43438.47517393
  entropy T*S    EENTRO =        -0.24220949
  eigenvalues    EBANDS =     -1172.60931710
  atomic energy  EATOM  =     47527.87699037
  Solvation  Ediel_sol  =         0.00000000
  ---------------------------------------------------
  free energy    TOTEN  =       -66.94826263 eV

  energy without entropy =      -66.70605314  energy(sigma->0) =      -66.82715789


--------------------------------------------------------------------------------------------------------




--------------------------------------- Iteration      1(   3)  ---------------------------------------


     EDDAV:  cpu time   11.3705: real time   11.3766
       DOS:  cpu time    0.0010: real time    0.0010
    --------------------------------------------
      LOOP:  cpu time   11.3716: real time   11.3776

 eigenvalue-minimisations  :  3738
 total energy-change (2. order) :-0.3271824E+03  (-0.2965729E+03)
 number of electron     652.0000000 magnetization 
 augmentation part      652.0000000 magnetization 

 DIPCOR: dipole corrections for dipol
 direction  3 min pos   175,
 dipolmoment           0.000000      0.000000     -0.000172 electrons x Angstroem
 Tr[quadrupol]    -12488.965193

 energy correction for charged system         0.000000 eV
 dipol+quadrupol energy correction           -0.000000 eV
 added-field ion interaction          0.003550 eV  (added to PSCEN)


 Free energy of the ion-electron system (eV)
  ---------------------------------------------------
  alpha Z        PSCENC =      1466.11450871
  Ewald energy   TEWEN  =    245988.53285936
  -Hartree energ DENC   =   -295955.01966249
  -exchange      EXHF   =         0.00000000
  -V(xc)+E(xc)   XCENC  =       271.86852075
  PAW double counting   =     45245.00522118   -43438.47517393
  entropy T*S    EENTRO =        -0.53002219
  eigenvalues    EBANDS =     -1499.50387350
  atomic energy  EATOM  =     47527.87699037
  Solvation  Ediel_sol  =         0.00000000
  ---------------------------------------------------
  free energy    TOTEN  =      -394.13063173 eV

  energy without entropy =     -393.60060954  energy(sigma->0) =     -393.86562064


--------------------------------------------------------------------------------------------------------




--------------------------------------- Iteration      1(   4)  ---------------------------------------


     EDDAV:  cpu time   12.1272: real time   12.1348
       DOS:  cpu time    0.0010: real time    0.0010
    --------------------------------------------
      LOOP:  cpu time   12.1281: real time   12.1358

 eigenvalue-minimisations  :  4046
 total energy-change (2. order) :-0.1550371E+02  (-0.1465343E+02)
 number of electron     652.0000000 magnetization 
 augmentation part      652.0000000 magnetization 

 DIPCOR: dipole corrections for dipol
 direction  3 min pos   175,
 dipolmoment           0.000000      0.000000     -0.000172 electrons x Angstroem
 Tr[quadrupol]    -12488.965193

 energy correction for charged system         0.000000 eV
 dipol+quadrupol energy correction           -0.000000 eV
 added-field ion interaction          0.003550 eV  (added to PSCEN)


 Free energy of the ion-electron system (eV)
  ---------------------------------------------------
  alpha Z        PSCENC =      1466.11450871
  Ewald energy   TEWEN  =    245988.53285936
  -Hartree energ DENC   =   -295955.01966249
  -exchange      EXHF   =         0.00000000
  -V(xc)+E(xc)   XCENC  =       271.86852075
  PAW double counting   =     45245.00522118   -43438.47517393
  entropy T*S    EENTRO =        -0.57961101
  eigenvalues    EBANDS =     -1514.95799852
  atomic energy  EATOM  =     47527.87699037
  Solvation  Ediel_sol  =         0.00000000
  ---------------------------------------------------
  free energy    TOTEN  =      -409.63434558 eV

  energy without entropy =     -409.05473457  energy(sigma->0) =     -409.34454008


--------------------------------------------------------------------------------------------------------




--------------------------------------- Iteration      1(   5)  ---------------------------------------


     EDDAV:  cpu time   11.8634: real time   11.8724
       DOS:  cpu time    0.0012: real time    0.0011
    CHARGE:  cpu time    0.2438: real time    0.2439
    MIXING:  cpu time    0.0023: real time    0.0024
    --------------------------------------------
      LOOP:  cpu time   12.1108: real time   12.1199

 eigenvalue-minimisations  :  3934
 total energy-change (2. order) :-0.3921822E+00  (-0.3897026E+00)
 number of electron     651.9999750 magnetization 
 augmentation part      187.6659806 magnetization 

 DIPCOR: dipole corrections for dipol
 direction  3 min pos   175,
 dipolmoment           0.000000      0.000000     -0.000172 electrons x Angstroem
 Tr[quadrupol]    -12488.965193

 energy correction for charged system         0.000000 eV
 dipol+quadrupol energy correction           -0.000000 eV
 added-field ion interaction          0.003550 eV  (added to PSCEN)


 Broyden mixing:
  rms(total) = 0.85836E+01    rms(broyden)= 0.85836E+01
  rms(prec ) = 0.86863E+01
  weight for this iteration     100.00

 Free energy of the ion-electron system (eV)
  ---------------------------------------------------
  alpha Z        PSCENC =      1466.11450871
  Ewald energy   TEWEN  =    245988.53285936
  -Hartree energ DENC   =   -295955.01966249
  -exchange      EXHF   =         0.00000000
  -V(xc)+E(xc)   XCENC  =       271.86852075
  PAW double counting   =     45245.00522118   -43438.47517393
  entropy T*S    EENTRO =        -0.58100257
  eigenvalues    EBANDS =     -1515.34878916
  atomic energy  EATOM  =     47527.87699037
  Solvation  Ediel_sol  =         0.00000000
  ---------------------------------------------------
  free energy    TOTEN  =      -410.02652778 eV

  energy without entropy =     -409.44552521  energy(sigma->0) =     -409.73602649


--------------------------------------------------------------------------------------------------------




--------------------------------------- Iteration      1(   6)  ---------------------------------------


    POTLOK:  cpu time    0.0446: real time    0.0471
    SETDIJ:  cpu time    0.0061: real time    0.0061
    EDDIAG:  cpu time    1.6426: real time    1.6435
  RMM-DIIS:  cpu time    5.0563: real time    5.0582
    ORTHCH:  cpu time    1.5926: real time    1.5962
       DOS:  cpu time    0.0013: real time    0.0013
    CHARGE:  cpu time    0.2376: real time    0.2378
    MIXING:  cpu time    0.0019: real time    0.0019
    --------------------------------------------
      LOOP:  cpu time    8.5830: real time    8.5920

 eigenvalue-minimisations  :  3149
 total energy-change (2. order) : 0.1184040E+02  (-0.8604909E+01)
 number of electron     651.9999742 magnetization 
 augmentation part      198.0343193 magnetization 

 DIPCOR: dipole corrections for dipol
 direction  3 min pos   189,
 dipolmoment           0.000000      0.000000     -0.382017 electrons x Angstroem
 Tr[quadrupol]    -12478.942878

 energy correction for charged system         0.000000 eV
 dipol+quadrupol energy correction           -0.004844 eV
 added-field ion interaction        -12.762245 eV  (added to PSCEN)


 Broyden mixing:
  rms(total) = 0.65822E+01    rms(broyden)= 0.65820E+01
  rms(prec ) = 0.73050E+01
  weight for this iteration     100.00

 eigenvalues of (default mixing * dielectric matrix)
  average eigenvalue GAMMA=   1.0743
  1.0743

 Free energy of the ion-electron system (eV)
  ---------------------------------------------------
  alpha Z        PSCENC =      1453.34386990
  Ewald energy   TEWEN  =    245988.53285936
  -Hartree energ DENC   =   -295216.08613120
  -exchange      EXHF   =         0.00000000
  -V(xc)+E(xc)   XCENC  =       257.01148054
  PAW double counting   =     49906.37809198   -48193.61528646
  entropy T*S    EENTRO =        -0.48069263
  eigenvalues    EBANDS =     -2121.14731335
  atomic energy  EATOM  =     47527.87699037
  Solvation  Ediel_sol  =         0.00000000
  ---------------------------------------------------
  free energy    TOTEN  =      -398.18613149 eV

  energy without entropy =     -397.70543886  energy(sigma->0) =     -397.94578518


--------------------------------------------------------------------------------------------------------




--------------------------------------- Iteration      1(   7)  ---------------------------------------


    POTLOK:  cpu time    0.0448: real time    0.0474
    SETDIJ:  cpu time    0.0060: real time    0.0060
    EDDIAG:  cpu time    1.6441: real time    1.6466
  RMM-DIIS:  cpu time    5.8885: real time    5.9086
    ORTHCH:  cpu time    0.7258: real time    0.7260
       DOS:  cpu time    0.0013: real time    0.0012
    CHARGE:  cpu time    0.2430: real time    0.2430
    MIXING:  cpu time    0.0017: real time    0.0017
    --------------------------------------------
      LOOP:  cpu time    8.5551: real time    8.5805

 eigenvalue-minimisations  :  3541
 total energy-change (2. order) :-0.2813526E+03  (-0.4215371E+02)
 number of electron     651.9999767 magnetization 
 augmentation part      191.3072553 magnetization 

 DIPCOR: dipole corrections for dipol
 direction  3 min pos   184,
 dipolmoment           0.000000      0.000000      5.890259 electrons x Angstroem
 Tr[quadrupol]    -12501.665054

 energy correction for charged system         0.000000 eV
 dipol+quadrupol energy correction           -1.151560 eV
 added-field ion interaction         82.969474 eV  (added to PSCEN)


 Broyden mixing:
  rms(total) = 0.11295E+02    rms(broyden)= 0.11295E+02
  rms(prec ) = 0.15577E+02
  weight for this iteration     100.00

 eigenvalues of (default mixing * dielectric matrix)
  average eigenvalue GAMMA=   0.8470
  1.5337  0.1602

 Free energy of the ion-electron system (eV)
  ---------------------------------------------------
  alpha Z        PSCENC =      1547.92887210
  Ewald energy   TEWEN  =    245988.53285936
  -Hartree energ DENC   =   -295675.87237258
  -exchange      EXHF   =         0.00000000
  -V(xc)+E(xc)   XCENC  =       252.04595295
  PAW double counting   =     52414.75276081   -50729.53754975
  entropy T*S    EENTRO =        -0.36069784
  eigenvalues    EBANDS =     -2004.90550736
  atomic energy  EATOM  =     47527.87699037
  Solvation  Ediel_sol  =         0.00000000
  ---------------------------------------------------
  free energy    TOTEN  =      -679.53869193 eV

  energy without entropy =     -679.17799409  energy(sigma->0) =     -679.35834301


--------------------------------------------------------------------------------------------------------




--------------------------------------- Iteration      1(   8)  ---------------------------------------


    POTLOK:  cpu time    0.0423: real time    0.0444
    SETDIJ:  cpu time    0.0061: real time    0.0061
    EDDIAG:  cpu time    1.6598: real time    1.6622
  RMM-DIIS:  cpu time    5.5327: real time    5.5341
    ORTHCH:  cpu time    0.7237: real time    0.7239
       DOS:  cpu time    0.0013: real time    0.0013
    CHARGE:  cpu time    0.2469: real time    0.2469
    MIXING:  cpu time    0.0016: real time    0.0016
    --------------------------------------------
      LOOP:  cpu time    8.2145: real time    8.2206

 eigenvalue-minimisations  :  3136
 total energy-change (2. order) : 0.1681365E+03  (-0.1345491E+02)
 number of electron     651.9999737 magnetization 
 augmentation part      194.5855093 magnetization 

 DIPCOR: dipole corrections for dipol
 direction  3 min pos   183,
 dipolmoment           0.000000      0.000000     -0.671598 electrons x Angstroem
 Tr[quadrupol]    -12504.532929

 energy correction for charged system         0.000000 eV
 dipol+quadrupol energy correction           -0.014970 eV
 added-field ion interaction         -6.864764 eV  (added to PSCEN)


 Broyden mixing:
  rms(total) = 0.90397E+01    rms(broyden)= 0.90395E+01
  rms(prec ) = 0.10630E+02
  weight for this iteration     100.00

 eigenvalues of (default mixing * dielectric matrix)
  average eigenvalue GAMMA=   0.8166
  2.0533  0.1982  0.1982

 Free energy of the ion-electron system (eV)
  ---------------------------------------------------
  alpha Z        PSCENC =      1459.23122347
  Ewald energy   TEWEN  =    245988.53285936
  -Hartree energ DENC   =   -295788.32217304
  -exchange      EXHF   =         0.00000000
  -V(xc)+E(xc)   XCENC  =       247.75108451
  PAW double counting   =     54420.87920797   -52763.64889256
  entropy T*S    EENTRO =        -0.27885054
  eigenvalues    EBANDS =     -1603.42360639
  atomic energy  EATOM  =     47527.87699037
  Solvation  Ediel_sol  =         0.00000000
  ---------------------------------------------------
  free energy    TOTEN  =      -511.40215685 eV

  energy without entropy =     -511.12330632  energy(sigma->0) =     -511.26273159


--------------------------------------------------------------------------------------------------------




--------------------------------------- Iteration      1(   9)  ---------------------------------------


    POTLOK:  cpu time    0.0424: real time    0.0443
    SETDIJ:  cpu time    0.0060: real time    0.0062
    EDDIAG:  cpu time    1.6479: real time    1.6481
  RMM-DIIS:  cpu time    5.4974: real time    5.4987
    ORTHCH:  cpu time    0.7236: real time    0.7236
       DOS:  cpu time    0.0012: real time    0.0012
    CHARGE:  cpu time    0.2493: real time    0.2495
    MIXING:  cpu time    0.0017: real time    0.0017
    --------------------------------------------
      LOOP:  cpu time    8.1695: real time    8.1732

 eigenvalue-minimisations  :  3144
 total energy-change (2. order) : 0.7292343E+02  (-0.6130806E+01)
 number of electron     651.9999749 magnetization 
 augmentation part      199.6099307 magnetization 

 DIPCOR: dipole corrections for dipol
 direction  3 min pos   178,
 dipolmoment           0.000000      0.000000      1.492434 electrons x Angstroem
 Tr[quadrupol]    -12489.275864

 energy correction for charged system         0.000000 eV
 dipol+quadrupol energy correction           -0.073928 eV
 added-field ion interaction        -13.581353 eV  (added to PSCEN)


 Broyden mixing:
  rms(total) = 0.55331E+01    rms(broyden)= 0.55330E+01
  rms(prec ) = 0.77520E+01
  weight for this iteration     100.00

 eigenvalues of (default mixing * dielectric matrix)
  average eigenvalue GAMMA=   0.7642
  2.0397  0.4376  0.4376  0.1417

 Free energy of the ion-electron system (eV)
  ---------------------------------------------------
  alpha Z        PSCENC =      1452.45567786
  Ewald energy   TEWEN  =    245988.53285936
  -Hartree energ DENC   =   -295255.86883584
  -exchange      EXHF   =         0.00000000
  -V(xc)+E(xc)   XCENC  =       245.24470548
  PAW double counting   =     56904.96340237   -55282.25605005
  entropy T*S    EENTRO =        -0.43065648
  eigenvalues    EBANDS =     -2018.99682412
  atomic energy  EATOM  =     47527.87699037
  Solvation  Ediel_sol  =         0.00000000
  ---------------------------------------------------
  free energy    TOTEN  =      -438.47873106 eV

  energy without entropy =     -438.04807458  energy(sigma->0) =     -438.26340282


--------------------------------------------------------------------------------------------------------




--------------------------------------- Iteration      1(  10)  ---------------------------------------


    POTLOK:  cpu time    0.0425: real time    0.0427
    SETDIJ:  cpu time    0.0061: real time    0.0061
    EDDIAG:  cpu time    1.6482: real time    1.6484
  RMM-DIIS:  cpu time    5.4120: real time    5.4131
    ORTHCH:  cpu time    0.7207: real time    0.7207
       DOS:  cpu time    0.0013: real time    0.0013
    CHARGE:  cpu time    0.2478: real time    0.2480
    MIXING:  cpu time    0.0018: real time    0.0018
    --------------------------------------------
      LOOP:  cpu time    8.0804: real time    8.0821

 eigenvalue-minimisations  :  3137
 total energy-change (2. order) : 0.2113929E+02  (-0.8287650E+01)
 number of electron     651.9999723 magnetization 
 augmentation part      201.2194066 magnetization 

 DIPCOR: dipole corrections for dipol
 direction  3 min pos   184,
 dipolmoment           0.000000      0.000000      0.481892 electrons x Angstroem
 Tr[quadrupol]    -12486.037721

 energy correction for charged system         0.000000 eV
 dipol+quadrupol energy correction           -0.007708 eV
 added-field ion interaction          6.787877 eV  (added to PSCEN)


 Broyden mixing:
  rms(total) = 0.57609E+01    rms(broyden)= 0.57608E+01
  rms(prec ) = 0.72722E+01
  weight for this iteration     100.00

 eigenvalues of (default mixing * dielectric matrix)
  average eigenvalue GAMMA=   0.6876
  2.0863  0.6910  0.3405  0.1476  0.1726

 Free energy of the ion-electron system (eV)
  ---------------------------------------------------
  alpha Z        PSCENC =      1472.89112744
  Ewald energy   TEWEN  =    245988.53285936
  -Hartree energ DENC   =   -295165.26443597
  -exchange      EXHF   =         0.00000000
  -V(xc)+E(xc)   XCENC  =       247.67381997
  PAW double counting   =     57199.73327326   -55573.84624055
  entropy T*S    EENTRO =        -0.37523259
  eigenvalues    EBANDS =     -2114.56159912
  atomic energy  EATOM  =     47527.87699037
  Solvation  Ediel_sol  =         0.00000000
  ---------------------------------------------------
  free energy    TOTEN  =      -417.33943782 eV

  energy without entropy =     -416.96420524  energy(sigma->0) =     -417.15182153


--------------------------------------------------------------------------------------------------------




--------------------------------------- Iteration      1(  11)  ---------------------------------------


    POTLOK:  cpu time    0.0433: real time    0.0451
    SETDIJ:  cpu time    0.0061: real time    0.0061
    EDDIAG:  cpu time    1.6453: real time    1.6455
  RMM-DIIS:  cpu time    5.5486: real time    5.5511
    ORTHCH:  cpu time    0.7175: real time    0.7178
       DOS:  cpu time    0.0013: real time    0.0013
    CHARGE:  cpu time    0.2517: real time    0.2518
    MIXING:  cpu time    0.0018: real time    0.0018
    --------------------------------------------
      LOOP:  cpu time    8.2155: real time    8.2205

 eigenvalue-minimisations  :  3141
 total energy-change (2. order) : 0.1853697E+02  (-0.1733184E+01)
 number of electron     651.9999724 magnetization 
 augmentation part      200.3526541 magnetization 

 DIPCOR: dipole corrections for dipol
 direction  3 min pos   192,
 dipolmoment           0.000000      0.000000     -0.763993 electrons x Angstroem
 Tr[quadrupol]    -12483.246137

 energy correction for charged system         0.000000 eV
 dipol+quadrupol energy correction           -0.019373 eV
 added-field ion interaction        -34.380109 eV  (added to PSCEN)


 Broyden mixing:
  rms(total) = 0.45151E+01    rms(broyden)= 0.45150E+01
  rms(prec ) = 0.59074E+01
  weight for this iteration     100.00

 eigenvalues of (default mixing * dielectric matrix)
  average eigenvalue GAMMA=   0.6667
  2.2576  0.7514  0.3139  0.3139  0.1623  0.2012

 Free energy of the ion-electron system (eV)
  ---------------------------------------------------
  alpha Z        PSCENC =      1431.71147654
  Ewald energy   TEWEN  =    245988.53285936
  -Hartree energ DENC   =   -295181.84076629
  -exchange      EXHF   =         0.00000000
  -V(xc)+E(xc)   XCENC  =       249.24862809
  PAW double counting   =     57452.35831926   -55824.65997063
  entropy T*S    EENTRO =        -0.45417409
  eigenvalues    EBANDS =     -2041.57582629
  atomic energy  EATOM  =     47527.87699037
  Solvation  Ediel_sol  =         0.00000000
  ---------------------------------------------------
  free energy    TOTEN  =      -398.80246368 eV

  energy without entropy =     -398.34828959  energy(sigma->0) =     -398.57537664


--------------------------------------------------------------------------------------------------------




--------------------------------------- Iteration      1(  12)  ---------------------------------------


    POTLOK:  cpu time    0.0423: real time    0.0443
    SETDIJ:  cpu time    0.0061: real time    0.0061
    EDDIAG:  cpu time    1.6426: real time    1.6430
  RMM-DIIS:  cpu time    5.2816: real time    5.2825
    ORTHCH:  cpu time    0.7214: real time    0.7216
       DOS:  cpu time    0.0012: real time    0.0012
    CHARGE:  cpu time    0.2494: real time    0.2494
    MIXING:  cpu time    0.0021: real time    0.0021
    --------------------------------------------
      LOOP:  cpu time    7.9467: real time    7.9502

 eigenvalue-minimisations  :  3142
 total energy-change (2. order) : 0.9395853E+01  (-0.4351315E+00)
 number of electron     651.9999745 magnetization 
 augmentation part      200.4268500 magnetization 

 DIPCOR: dipole corrections for dipol
 direction  3 min pos   191,
 dipolmoment           0.000000      0.000000     -0.074650 electrons x Angstroem
 Tr[quadrupol]    -12486.214188

 energy correction for charged system         0.000000 eV
 dipol+quadrupol energy correction           -0.000185 eV
 added-field ion interaction         -3.070815 eV  (added to PSCEN)


 Broyden mixing:
  rms(total) = 0.23829E+01    rms(broyden)= 0.23828E+01
  rms(prec ) = 0.27167E+01
  weight for this iteration     100.00

 eigenvalues of (default mixing * dielectric matrix)
  average eigenvalue GAMMA=   0.6469
  2.1151  0.8667  0.3968  0.3968  0.4375  0.1577  0.1577

 Free energy of the ion-electron system (eV)
  ---------------------------------------------------
  alpha Z        PSCENC =      1463.03995844
  Ewald energy   TEWEN  =    245988.53285936
  -Hartree energ DENC   =   -295215.32733523
  -exchange      EXHF   =         0.00000000
  -V(xc)+E(xc)   XCENC  =       248.72538712
  PAW double counting   =     57862.28977054   -56240.54282864
  entropy T*S    EENTRO =        -0.56654632
  eigenvalues    EBANDS =     -2023.43486604
  atomic energy  EATOM  =     47527.87699037
  Solvation  Ediel_sol  =         0.00000000
  ---------------------------------------------------
  free energy    TOTEN  =      -389.40661040 eV

  energy without entropy =     -388.84006407  energy(sigma->0) =     -389.12333723


--------------------------------------------------------------------------------------------------------




--------------------------------------- Iteration      1(  13)  ---------------------------------------


    POTLOK:  cpu time    0.0443: real time    0.0464
    SETDIJ:  cpu time    0.0061: real time    0.0061
    EDDIAG:  cpu time    1.6449: real time    1.6451
  RMM-DIIS:  cpu time    5.0204: real time    5.0244
    ORTHCH:  cpu time    0.7220: real time    0.7220
       DOS:  cpu time    0.0013: real time    0.0013
    CHARGE:  cpu time    0.2488: real time    0.2490
    MIXING:  cpu time    0.0023: real time    0.0023
    --------------------------------------------
      LOOP:  cpu time    7.6902: real time    7.6967

 eigenvalue-minimisations  :  3145
 total energy-change (2. order) : 0.5795285E+00  (-0.4061041E+00)
 number of electron     651.9999746 magnetization 
 augmentation part      200.5894576 magnetization 

 DIPCOR: dipole corrections for dipol
 direction  3 min pos   191,
 dipolmoment           0.000000      0.000000      0.222015 electrons x Angstroem
 Tr[quadrupol]    -12485.904665

 energy correction for charged system         0.000000 eV
 dipol+quadrupol energy correction           -0.001636 eV
 added-field ion interaction          9.132840 eV  (added to PSCEN)


 Broyden mixing:
  rms(total) = 0.23553E+01    rms(broyden)= 0.23552E+01
  rms(prec ) = 0.31734E+01
  weight for this iteration     100.00

 eigenvalues of (default mixing * dielectric matrix)
  average eigenvalue GAMMA=   0.5951
  2.0156  0.8907  0.4382  0.4382  0.4465  0.1738  0.1738  0.1841

 Free energy of the ion-electron system (eV)
  ---------------------------------------------------
  alpha Z        PSCENC =      1475.24216228
  Ewald energy   TEWEN  =    245988.53285936
  -Hartree energ DENC   =   -295194.49807983
  -exchange      EXHF   =         0.00000000
  -V(xc)+E(xc)   XCENC  =       248.75968969
  PAW double counting   =     57695.40630308   -56071.73499374
  entropy T*S    EENTRO =        -0.55944032
  eigenvalues    EBANDS =     -2057.85257279
  atomic energy  EATOM  =     47527.87699037
  Solvation  Ediel_sol  =         0.00000000
  ---------------------------------------------------
  free energy    TOTEN  =      -388.82708190 eV

  energy without entropy =     -388.26764157  energy(sigma->0) =     -388.54736173


--------------------------------------------------------------------------------------------------------




--------------------------------------- Iteration      1(  14)  ---------------------------------------


    POTLOK:  cpu time    0.0456: real time    0.0465
    SETDIJ:  cpu time    0.0060: real time    0.0060
    EDDIAG:  cpu time    1.6548: real time    1.6567
  RMM-DIIS:  cpu time    5.1434: real time    5.1442
    ORTHCH:  cpu time    0.7204: real time    0.7206
       DOS:  cpu time    0.0013: real time    0.0013
    CHARGE:  cpu time    0.2500: real time    0.2500
    MIXING:  cpu time    0.0023: real time    0.0023
    --------------------------------------------
      LOOP:  cpu time    7.8238: real time    7.8278

 eigenvalue-minimisations  :  3145
 total energy-change (2. order) : 0.4475026E+01  (-0.2414604E+00)
 number of electron     651.9999745 magnetization 
 augmentation part      200.4837531 magnetization 

 DIPCOR: dipole corrections for dipol
 direction  3 min pos   193,
 dipolmoment           0.000000      0.000000      0.075657 electrons x Angstroem
 Tr[quadrupol]    -12485.181119

 energy correction for charged system         0.000000 eV
 dipol+quadrupol energy correction           -0.000190 eV
 added-field ion interaction          3.696990 eV  (added to PSCEN)


 Broyden mixing:
  rms(total) = 0.14857E+01    rms(broyden)= 0.14857E+01
  rms(prec ) = 0.19288E+01
  weight for this iteration     100.00

 eigenvalues of (default mixing * dielectric matrix)
  average eigenvalue GAMMA=   0.5811
  2.0915  0.7724  0.6077  0.6077  0.3213  0.3213  0.1918  0.1579  0.1579

 Free energy of the ion-electron system (eV)
  ---------------------------------------------------
  alpha Z        PSCENC =      1469.80775840
  Ewald energy   TEWEN  =    245988.53285936
  -Hartree energ DENC   =   -295190.37455241
  -exchange      EXHF   =         0.00000000
  -V(xc)+E(xc)   XCENC  =       249.05132850
  PAW double counting   =     57570.81248076   -55944.72034883
  entropy T*S    EENTRO =        -0.61608022
  eigenvalues    EBANDS =     -2054.72249171
  atomic energy  EATOM  =     47527.87699037
  Solvation  Ediel_sol  =         0.00000000
  ---------------------------------------------------
  free energy    TOTEN  =      -384.35205577 eV

  energy without entropy =     -383.73597555  energy(sigma->0) =     -384.04401566


--------------------------------------------------------------------------------------------------------




--------------------------------------- Iteration      1(  15)  ---------------------------------------


    POTLOK:  cpu time    0.0459: real time    0.0487
    SETDIJ:  cpu time    0.0061: real time    0.0061
    EDDIAG:  cpu time    1.6458: real time    1.6477
  RMM-DIIS:  cpu time    5.0930: real time    5.0938
    ORTHCH:  cpu time    0.7208: real time    0.7210
       DOS:  cpu time    0.0013: real time    0.0013
    CHARGE:  cpu time    0.2486: real time    0.2486
    MIXING:  cpu time    0.0025: real time    0.0025
    --------------------------------------------
      LOOP:  cpu time    7.7638: real time    7.7696

 eigenvalue-minimisations  :  3150
 total energy-change (2. order) : 0.9384428E+00  (-0.1113627E+00)
 number of electron     651.9999748 magnetization 
 augmentation part      200.4655350 magnetization 

 DIPCOR: dipole corrections for dipol
 direction  3 min pos   194,
 dipolmoment           0.000000      0.000000      0.085199 electrons x Angstroem
 Tr[quadrupol]    -12485.500161

 energy correction for charged system         0.000000 eV
 dipol+quadrupol energy correction           -0.000241 eV
 added-field ion interaction          4.492465 eV  (added to PSCEN)


 Broyden mixing:
  rms(total) = 0.12474E+01    rms(broyden)= 0.12474E+01
  rms(prec ) = 0.15678E+01
  weight for this iteration     100.00

 eigenvalues of (default mixing * dielectric matrix)
  average eigenvalue GAMMA=   0.5732
  2.1833  0.7320  0.6729  0.6729  0.3862  0.3862  0.2273  0.1610  0.1610  0.1488

 Free energy of the ion-electron system (eV)
  ---------------------------------------------------
  alpha Z        PSCENC =      1470.60318210
  Ewald energy   TEWEN  =    245988.53285936
  -Hartree energ DENC   =   -295200.47234645
  -exchange      EXHF   =         0.00000000
  -V(xc)+E(xc)   XCENC  =       249.07161367
  PAW double counting   =     57615.48268875   -55989.72142290
  entropy T*S    EENTRO =        -0.60061715
  eigenvalues    EBANDS =     -2044.18656066
  atomic energy  EATOM  =     47527.87699037
  Solvation  Ediel_sol  =         0.00000000
  ---------------------------------------------------
  free energy    TOTEN  =      -383.41361292 eV

  energy without entropy =     -382.81299576  energy(sigma->0) =     -383.11330434


--------------------------------------------------------------------------------------------------------




--------------------------------------- Iteration      1(  16)  ---------------------------------------


    POTLOK:  cpu time    0.0449: real time    0.0458
    SETDIJ:  cpu time    0.0061: real time    0.0061
    EDDIAG:  cpu time    1.6424: real time    1.6444
  RMM-DIIS:  cpu time    5.0940: real time    5.0950
    ORTHCH:  cpu time    0.7248: real time    0.7250
       DOS:  cpu time    0.0012: real time    0.0012
    CHARGE:  cpu time    0.2471: real time    0.2471
    MIXING:  cpu time    0.0025: real time    0.0025
    --------------------------------------------
      LOOP:  cpu time    7.7630: real time    7.7672

 eigenvalue-minimisations  :  3151
 total energy-change (2. order) : 0.1446228E+00  (-0.5338461E-01)
 number of electron     651.9999751 magnetization 
 augmentation part      200.4644656 magnetization 

 DIPCOR: dipole corrections for dipol
 direction  3 min pos   192,
 dipolmoment           0.000000      0.000000      0.119759 electrons x Angstroem
 Tr[quadrupol]    -12486.052691

 energy correction for charged system         0.000000 eV
 dipol+quadrupol energy correction           -0.000476 eV
 added-field ion interaction          5.389218 eV  (added to PSCEN)


 Broyden mixing:
  rms(total) = 0.11377E+01    rms(broyden)= 0.11376E+01
  rms(prec ) = 0.14964E+01
  weight for this iteration     100.00

 eigenvalues of (default mixing * dielectric matrix)
  average eigenvalue GAMMA=   0.5734
  2.1874  0.7703  0.7703  0.7544  0.4167  0.4167  0.3066  0.2074  0.1630  0.1630
  0.1519

 Free energy of the ion-electron system (eV)
  ---------------------------------------------------
  alpha Z        PSCENC =      1471.49970013
  Ewald energy   TEWEN  =    245988.53285936
  -Hartree energ DENC   =   -295215.26166686
  -exchange      EXHF   =         0.00000000
  -V(xc)+E(xc)   XCENC  =       249.02620160
  PAW double counting   =     57692.01421381   -56067.04650061
  entropy T*S    EENTRO =        -0.62677824
  eigenvalues    EBANDS =     -2029.28400970
  atomic energy  EATOM  =     47527.87699037
  Solvation  Ediel_sol  =         0.00000000
  ---------------------------------------------------
  free energy    TOTEN  =      -383.26899015 eV

  energy without entropy =     -382.64221191  energy(sigma->0) =     -382.95560103


--------------------------------------------------------------------------------------------------------




--------------------------------------- Iteration      1(  17)  ---------------------------------------


    POTLOK:  cpu time    0.0433: real time    0.0453
    SETDIJ:  cpu time    0.0061: real time    0.0061
    EDDIAG:  cpu time    1.6577: real time    1.6596
  RMM-DIIS:  cpu time    5.0923: real time    5.0934
    ORTHCH:  cpu time    0.7229: real time    0.7229
       DOS:  cpu time    0.0013: real time    0.0013
    CHARGE:  cpu time    0.2475: real time    0.2477
    MIXING:  cpu time    0.0027: real time    0.0027
    --------------------------------------------
      LOOP:  cpu time    7.7738: real time    7.7789

 eigenvalue-minimisations  :  3159
 total energy-change (2. order) : 0.4695677E+00  (-0.2052126E-01)
 number of electron     651.9999751 magnetization 
 augmentation part      200.3536424 magnetization 

 DIPCOR: dipole corrections for dipol
 direction  3 min pos   191,
 dipolmoment           0.000000      0.000000      0.052424 electrons x Angstroem
 Tr[quadrupol]    -12486.266950

 energy correction for charged system         0.000000 eV
 dipol+quadrupol energy correction           -0.000091 eV
 added-field ion interaction          2.156542 eV  (added to PSCEN)


 Broyden mixing:
  rms(total) = 0.89835E+00    rms(broyden)= 0.89835E+00
  rms(prec ) = 0.11183E+01
  weight for this iteration     100.00

 eigenvalues of (default mixing * dielectric matrix)
  average eigenvalue GAMMA=   0.5887
  2.1316  0.9746  0.9746  0.7135  0.5863  0.3344  0.3344  0.3522  0.1904  0.1619
  0.1619  0.1492

 Free energy of the ion-electron system (eV)
  ---------------------------------------------------
  alpha Z        PSCENC =      1468.26740932
  Ewald energy   TEWEN  =    245988.53285936
  -Hartree energ DENC   =   -295229.31390200
  -exchange      EXHF   =         0.00000000
  -V(xc)+E(xc)   XCENC  =       249.15883566
  PAW double counting   =     57692.74417854   -56067.05915376
  entropy T*S    EENTRO =        -0.62898217
  eigenvalues    EBANDS =     -2012.37765777
  atomic energy  EATOM  =     47527.87699037
  Solvation  Ediel_sol  =         0.00000000
  ---------------------------------------------------
  free energy    TOTEN  =      -382.79942246 eV

  energy without entropy =     -382.17044029  energy(sigma->0) =     -382.48493138


--------------------------------------------------------------------------------------------------------




--------------------------------------- Iteration      1(  18)  ---------------------------------------


    POTLOK:  cpu time    0.0432: real time    0.0434
    SETDIJ:  cpu time    0.0061: real time    0.0061
    EDDIAG:  cpu time    1.6687: real time    1.6689
  RMM-DIIS:  cpu time    5.1047: real time    5.1058
    ORTHCH:  cpu time    0.7193: real time    0.7194
       DOS:  cpu time    0.0012: real time    0.0012
    CHARGE:  cpu time    0.2481: real time    0.2482
    MIXING:  cpu time    0.0027: real time    0.0027
    --------------------------------------------
      LOOP:  cpu time    7.7941: real time    7.7958

 eigenvalue-minimisations  :  3153
 total energy-change (2. order) : 0.3053352E+00  (-0.1096831E-01)
 number of electron     651.9999749 magnetization 
 augmentation part      200.2291498 magnetization 

 DIPCOR: dipole corrections for dipol
 direction  3 min pos   191,
 dipolmoment           0.000000      0.000000      0.001495 electrons x Angstroem
 Tr[quadrupol]    -12486.366566

 energy correction for charged system         0.000000 eV
 dipol+quadrupol energy correction           -0.000000 eV
 added-field ion interaction          0.061508 eV  (added to PSCEN)


 Broyden mixing:
  rms(total) = 0.64778E+00    rms(broyden)= 0.64777E+00
  rms(prec ) = 0.75436E+00
  weight for this iteration     100.00

 eigenvalues of (default mixing * dielectric matrix)
  average eigenvalue GAMMA=   0.6397
  1.9974  1.3685  1.3685  0.7409  0.7409  0.4886  0.3538  0.3538  0.2353  0.1956
  0.1618  0.1618  0.1486

 Free energy of the ion-electron system (eV)
  ---------------------------------------------------
  alpha Z        PSCENC =      1466.17246658
[...]
    FORHAR:  cpu time    0.0266: real time    0.0266
    MIXING:  cpu time    0.0022: real time    0.0022
    OFIELD:  cpu time    0.0001: real time    0.0000

 ---------------------------------------------------------------------------------------------

         DFTD3 V3.0 Rev 1        
 Edisp (eV)  -35.09061

 E6    (eV) :   -13.2164
 E8    (eV) :   -21.8742
 % E8        : 62.34
    FORVDW:  cpu time    0.2735: real time    0.2919

  FORCE on cell =-STRESS in cart. coord.  units (eV):
  Direction    XX          YY          ZZ          XY          YZ          ZX
  --------------------------------------------------------------------------------------
  Alpha Z  1466.11096  1466.11096  1466.11096
  Ewald  286147.15111286197.71197************     0.00000     0.00000    15.31557
  Hartree296600.42190296664.68797************     0.00000    -0.00000     9.44828
  E(xc)   -2893.65316 -2893.51605 -2911.48348     0.00000     0.00000     0.05231
  Local  ************************603473.79557     0.00000     0.00000   -23.73425
  n-local   268.32348   261.96629   247.01707    10.65385     0.00575    -1.92985
  augment  3353.16249  3353.00664  3436.42461     0.00000     0.00000     0.25703
  Kinetic  9487.80520  9487.41623  9728.73998     1.92065    -4.48887     0.30161
  Fock        0.00000     0.00000     0.00000     0.00000     0.00000     0.00000
  vdW       -44.65948   -44.70152   -30.01842    -0.00000     0.00000     0.00150
  -------------------------------------------------------------------------------------
  Total     -83.85844   -86.24576    -5.30999     0.00000     0.00000    -0.28780
  in kB     -49.28477   -50.68784    -3.12076     0.00000     0.00000    -0.16914
  external pressure =      -34.36 kB  Pullay stress =        0.00 kB


 VOLUME and BASIS-vectors are now :
 -----------------------------------------------------------------------------
  energy-cutoff  :      450.00
  volume of cell :     2726.12
      direct lattice vectors                 reciprocal lattice vectors
     9.717792020  0.000000000  0.000000000     0.102904034  0.000000000  0.000000000
     0.000000000 11.221139680  0.000000000     0.000000000  0.089117508  0.000000000
     0.000000000  0.000000000 25.000000000     0.000000000  0.000000000  0.040000000

  length of vectors
     9.717792020 11.221139680 25.000000000     0.102904034  0.089117508  0.040000000


 FORCES acting on ions
    electron-ion (+dipol)            ewald-force                    non-local-force                 convergence-correction
 -----------------------------------------------------------------------------------------------
   -.711E+00 -.614E-01 0.257E+04   0.569E+00 0.712E-01 -.257E+04   0.906E-01 -.995E-02 -.115E+01   0.285E-02 0.967E-03 0.403E-02
   0.944E+00 -.131E+01 0.911E+03   -.984E+00 0.125E+01 -.911E+03   0.340E-01 0.120E+00 -.691E+00   0.483E-02 -.421E-02 0.349E-01
   0.773E+01 0.131E+02 -.779E+03   -.739E+01 -.125E+02 0.780E+03   -.350E+00 -.586E+00 -.136E+00   0.967E-02 -.188E-02 0.330E-01
   -.226E+00 -.293E+00 0.257E+04   0.176E+00 0.236E+00 -.257E+04   0.191E-01 0.271E-01 -.124E+01   0.329E-02 -.170E-02 0.694E-02
   -.359E+01 -.141E+01 0.911E+03   0.362E+01 0.139E+01 -.910E+03   0.375E-01 0.668E-01 -.670E+00   0.616E-02 -.144E-02 0.315E-01
   -.355E+01 0.940E+01 -.784E+03   0.350E+01 -.921E+01 0.784E+03   0.549E-01 -.199E+00 0.731E+00   -.107E-02 -.462E-02 0.327E-01
   0.178E+02 0.158E+02 -.250E+04   -.183E+02 -.158E+02 0.250E+04   0.474E+00 0.281E-02 0.107E+01   0.283E-02 -.119E-02 0.692E-02
   0.529E+02 0.996E+02 -.242E+04   -.539E+02 -.102E+03 0.242E+04   0.111E+01 0.242E+01 0.706E+00   0.523E-03 -.464E-03 0.798E-02
   -.361E+00 -.972E-01 0.257E+04   0.468E+00 0.673E-01 -.257E+04   -.759E-01 0.499E-02 -.121E+01   0.137E-02 0.881E-03 0.371E-02
   -.653E+00 -.182E+01 0.911E+03   0.611E+00 0.179E+01 -.911E+03   0.259E-01 0.118E+00 -.523E+00   0.166E-02 -.443E-02 0.320E-01
   0.832E+01 0.114E+02 -.785E+03   -.795E+01 -.109E+02 0.785E+03   -.390E+00 -.540E+00 0.873E-01   0.480E-02 -.345E-02 0.338E-01
   -.434E+00 -.122E-11 0.257E+04   0.415E+00 0.564E-13 -.257E+04   0.678E-02 0.000E+00 -.123E+01   0.999E-03 0.967E-12 0.508E-02
   -.372E+01 -.956E-13 0.912E+03   0.363E+01 -.102E-12 -.912E+03   0.127E+00 0.000E+00 -.583E+00   0.327E-02 0.166E-11 0.292E-01
   -.445E+01 0.464E-12 -.798E+03   0.437E+01 0.853E-11 0.797E+03   0.964E-01 0.000E+00 0.824E+00   -.103E-02 -.170E-12 0.387E-01
   0.383E+02 0.143E+02 -.247E+04   -.390E+02 -.143E+02 0.247E+04   0.645E+00 0.234E-01 0.142E+01   0.128E-02 0.167E-03 0.105E-01
   0.108E+03 -.117E-12 -.237E+04   -.111E+03 0.853E-13 0.237E+04   0.291E+01 0.000E+00 0.982E+00   -.470E-02 -.389E-12 0.201E-01
   -.361E+00 0.972E-01 0.257E+04   0.468E+00 -.673E-01 -.257E+04   -.759E-01 -.499E-02 -.121E+01   0.137E-02 -.881E-03 0.371E-02
   -.653E+00 0.182E+01 0.911E+03   0.611E+00 -.179E+01 -.911E+03   0.259E-01 -.118E+00 -.523E+00   0.166E-02 0.443E-02 0.320E-01
   0.832E+01 -.114E+02 -.785E+03   -.795E+01 0.109E+02 0.785E+03   -.390E+00 0.540E+00 0.873E-01   0.480E-02 0.345E-02 0.338E-01
   -.226E+00 0.293E+00 0.257E+04   0.176E+00 -.236E+00 -.257E+04   0.191E-01 -.271E-01 -.124E+01   0.329E-02 0.170E-02 0.694E-02
   -.359E+01 0.141E+01 0.911E+03   0.362E+01 -.139E+01 -.910E+03   0.375E-01 -.668E-01 -.670E+00   0.616E-02 0.144E-02 0.315E-01
   -.355E+01 -.940E+01 -.784E+03   0.350E+01 0.921E+01 0.784E+03   0.549E-01 0.199E+00 0.731E+00   -.107E-02 0.462E-02 0.327E-01
   0.383E+02 -.143E+02 -.247E+04   -.390E+02 0.143E+02 0.247E+04   0.645E+00 -.234E-01 0.142E+01   0.128E-02 -.167E-03 0.105E-01
   0.529E+02 -.996E+02 -.242E+04   -.539E+02 0.102E+03 0.242E+04   0.111E+01 -.242E+01 0.706E+00   0.523E-03 0.464E-03 0.798E-02
   -.711E+00 0.614E-01 0.257E+04   0.569E+00 -.712E-01 -.257E+04   0.906E-01 0.995E-02 -.115E+01   0.285E-02 -.967E-03 0.403E-02
   0.944E+00 0.131E+01 0.911E+03   -.984E+00 -.125E+01 -.911E+03   0.340E-01 -.120E+00 -.691E+00   0.483E-02 0.421E-02 0.349E-01
   0.773E+01 -.131E+02 -.779E+03   -.739E+01 0.125E+02 0.780E+03   -.350E+00 0.586E+00 -.136E+00   0.967E-02 0.188E-02 0.330E-01
   -.921E-01 -.107E-11 0.257E+04   -.393E-01 0.276E-13 -.257E+04   0.454E-01 0.000E+00 -.124E+01   0.580E-02 -.105E-11 0.869E-02
   -.441E+01 0.265E-12 0.909E+03   0.452E+01 0.338E-12 -.908E+03   -.415E-01 0.000E+00 -.791E+00   0.883E-02 -.167E-11 0.333E-01
   -.736E+00 0.652E-12 -.777E+03   0.677E+00 -.355E-14 0.776E+03   0.527E-01 0.000E+00 0.629E+00   0.141E-02 0.827E-13 0.306E-01
   0.178E+02 -.158E+02 -.250E+04   -.183E+02 0.158E+02 0.250E+04   0.474E+00 -.281E-02 0.107E+01   0.283E-02 0.119E-02 0.692E-02
   -.395E+01 0.836E-13 -.249E+04   0.377E+01 -.711E-13 0.249E+04   0.168E+00 0.000E+00 0.116E+01   0.615E-02 -.104E-12 0.158E-03
   0.502E+00 -.357E+00 0.257E+04   -.464E+00 0.342E+00 -.257E+04   -.443E-02 0.141E-01 -.123E+01   -.298E-02 -.207E-02 0.939E-02
   -.159E+00 -.640E-01 0.914E+03   0.225E+00 0.106E+00 -.913E+03   -.931E-02 -.903E-02 -.895E+00   -.523E-02 -.726E-03 0.331E-01
   -.403E+01 0.439E+01 -.779E+03   0.391E+01 -.433E+01 0.778E+03   0.120E+00 -.543E-01 0.670E+00   -.850E-02 -.371E-02 0.324E-01
   0.340E+00 -.387E+00 0.257E+04   -.305E+00 0.411E+00 -.257E+04   0.689E-03 -.129E-01 -.128E+01   -.317E-02 0.351E-03 0.471E-02
   0.168E+01 -.237E+01 0.912E+03   -.164E+01 0.243E+01 -.911E+03   -.113E+00 0.213E-01 -.667E+00   -.575E-02 -.522E-02 0.333E-01
   0.318E+01 0.595E+01 -.772E+03   -.314E+01 -.586E+01 0.771E+03   -.398E-01 -.865E-01 0.737E+00   -.378E-03 -.325E-02 0.367E-01
   -.170E+02 0.298E+02 -.248E+04   0.176E+02 -.303E+02 0.248E+04   -.545E+00 0.559E+00 0.164E+01   -.311E-02 -.259E-02 0.131E-02
   -.111E+02 0.180E+02 -.250E+04   0.114E+02 -.182E+02 0.250E+04   -.313E+00 0.271E+00 0.115E+01   -.363E-02 -.406E-02 0.563E-02
   0.344E+00 -.397E+00 0.257E+04   -.312E+00 0.387E+00 -.257E+04   -.147E-01 0.457E-02 -.123E+01   -.143E-02 -.171E-02 0.593E-02
   0.375E+01 -.597E-01 0.913E+03   -.382E+01 0.101E+00 -.913E+03   0.192E-01 -.188E-01 -.815E+00   -.199E-02 -.528E-03 0.293E-01
   -.122E+02 0.388E+01 -.784E+03   0.115E+02 -.384E+01 0.784E+03   0.718E+00 -.304E-01 -.121E+00   -.649E-02 -.373E-02 0.337E-01
   0.619E+00 -.411E-11 0.257E+04   -.562E+00 0.600E-13 -.257E+04   -.947E-02 0.000E+00 -.125E+01   -.921E-03 0.172E-11 0.403E-02
   0.228E+01 -.358E-12 0.909E+03   -.220E+01 0.422E-11 -.908E+03   -.155E+00 0.000E+00 -.452E+00   -.255E-02 0.119E-11 0.306E-01
   0.450E+01 -.606E-12 -.763E+03   -.452E+01 -.995E-13 0.763E+03   0.267E-01 0.000E+00 0.706E+00   -.822E-03 0.586E-12 0.355E-01
   -.113E+03 0.248E+02 -.242E+04   0.115E+03 -.250E+02 0.242E+04   -.233E+01 0.222E+00 0.867E+00   -.265E-02 -.410E-02 0.126E-01
   -.269E+02 0.155E-11 -.249E+04   0.271E+02 -.622E-13 0.249E+04   -.179E+00 0.000E+00 0.118E+01   -.523E-02 -.142E-11 0.700E-02
   0.344E+00 0.397E+00 0.257E+04   -.312E+00 -.387E+00 -.257E+04   -.147E-01 -.457E-02 -.123E+01   -.143E-02 0.171E-02 0.593E-02
   0.375E+01 0.597E-01 0.913E+03   -.382E+01 -.101E+00 -.913E+03   0.192E-01 0.188E-01 -.815E+00   -.199E-02 0.528E-03 0.293E-01
   -.122E+02 -.388E+01 -.784E+03   0.115E+02 0.384E+01 0.784E+03   0.718E+00 0.304E-01 -.121E+00   -.649E-02 0.373E-02 0.337E-01
   0.340E+00 0.387E+00 0.257E+04   -.305E+00 -.411E+00 -.257E+04   0.689E-03 0.129E-01 -.128E+01   -.317E-02 -.351E-03 0.471E-02
   0.168E+01 0.237E+01 0.912E+03   -.164E+01 -.243E+01 -.911E+03   -.113E+00 -.213E-01 -.667E+00   -.575E-02 0.522E-02 0.333E-01
   0.318E+01 -.595E+01 -.772E+03   -.314E+01 0.586E+01 0.771E+03   -.398E-01 0.865E-01 0.737E+00   -.378E-03 0.325E-02 0.367E-01
   -.113E+03 -.248E+02 -.242E+04   0.115E+03 0.250E+02 0.242E+04   -.233E+01 -.222E+00 0.867E+00   -.265E-02 0.410E-02 0.126E-01
   -.111E+02 -.180E+02 -.250E+04   0.114E+02 0.182E+02 0.250E+04   -.313E+00 -.271E+00 0.115E+01   -.363E-02 0.406E-02 0.563E-02
   0.502E+00 0.357E+00 0.257E+04   -.464E+00 -.342E+00 -.257E+04   -.443E-02 -.141E-01 -.123E+01   -.298E-02 0.207E-02 0.939E-02
   -.159E+00 0.640E-01 0.914E+03   0.225E+00 -.106E+00 -.913E+03   -.931E-02 0.903E-02 -.895E+00   -.523E-02 0.726E-03 0.331E-01
   -.403E+01 -.439E+01 -.779E+03   0.391E+01 0.433E+01 0.778E+03   0.120E+00 0.543E-01 0.670E+00   -.850E-02 0.371E-02 0.324E-01
   0.902E-01 0.188E-11 0.257E+04   -.769E-01 -.614E-13 -.257E+04   -.479E-02 0.000E+00 -.129E+01   -.573E-02 -.167E-11 0.578E-02
   0.151E+01 0.116E-11 0.914E+03   -.150E+01 0.395E-13 -.913E+03   -.750E-01 0.000E+00 -.840E+00   -.881E-02 -.993E-12 0.358E-01
   0.191E+01 0.735E-12 -.779E+03   -.175E+01 -.355E-14 0.778E+03   -.164E+00 0.000E+00 0.798E+00   -.100E-02 -.786E-12 0.367E-01
   -.170E+02 -.298E+02 -.248E+04   0.176E+02 0.303E+02 0.248E+04   -.545E+00 -.559E+00 0.164E+01   -.311E-02 0.259E-02 0.131E-02
   0.277E+01 0.555E-12 -.250E+04   -.240E+01 -.622E-13 0.250E+04   -.377E+00 0.000E+00 0.109E+01   -.180E-02 0.350E-12 0.430E-02
   -.788E+01 0.413E+02 -.184E+04   0.857E+01 -.409E+02 0.187E+04   -.685E+00 -.452E+00 -.289E+02   0.726E-03 0.174E-03 -.279E-02
   -.788E+01 -.413E+02 -.184E+04   0.857E+01 0.409E+02 0.187E+04   -.685E+00 0.452E+00 -.289E+02   0.726E-03 -.174E-03 -.279E-02
 -----------------------------------------------------------------------------------------------
   0.709E+00 0.235E-10 0.625E+02   -.134E-11 -.455E-12 -.682E-12   -.627E+00 0.222E-15 -.638E+02   -.189E-01 -.878E-12 0.127E+01
 
 
 POSITION                                       TOTAL-FORCE (eV/Angst)
 -----------------------------------------------------------------------------------
      0.00000      0.00000      0.00000        -0.050076      0.000471      0.054274
      3.23926      0.00000      2.29051        -0.006992      0.053905     -0.191037
      1.63008      0.02346      4.51472        -0.001052     -0.000637      0.005245
      2.42945      1.40264      0.00000        -0.028385     -0.031930      0.171717
      0.80982      1.40264      2.29051         0.073411      0.043434     -0.114260
      4.04714      1.41942      4.51998         0.002330     -0.005268      0.005127
     -0.03736     -0.02005      6.76726        -0.003356      0.000619      0.009825
      2.36240      1.26286      6.80576         0.004974     -0.004849      0.011243
      0.00000      2.80528      0.00000         0.030610     -0.024372      0.093394
      3.23926      2.80528      2.29051        -0.015836      0.076006     -0.009123
      1.63961      2.82650      4.54024         0.002526     -0.002550      0.004158
      2.42945      4.20793      0.00000        -0.012516     -0.000000      0.167361
      0.80982      4.20793      2.29051         0.034060     -0.000000     -0.190499
      4.04444      4.20793      4.55677         0.003613     -0.000000     -0.008135
     -0.05584      2.77605      6.74148         0.002568     -0.001966      0.005032
      2.26743      4.20793      6.88067         0.014720     -0.000000     -0.010976
      0.00000      5.61057      0.00000         0.030610      0.024372      0.093394
      3.23926      5.61057      2.29051        -0.015836     -0.076006     -0.009123
      1.63961      5.58936      4.54024         0.002526      0.002550      0.004158
      2.42945      7.01321      0.00000        -0.028385      0.031930      0.171717
      0.80982      7.01321      2.29051         0.073411     -0.043434     -0.114260
      4.04714      6.99644      4.51998         0.002330      0.005268      0.005127
     -0.05584      5.63981      6.74148         0.002568      0.001966      0.005032
      2.36240      7.15300      6.80576         0.004974      0.004849      0.011243
      0.00000      8.41585      0.00000        -0.050076     -0.000471      0.054274
      3.23926      8.41585      2.29051        -0.006992     -0.053905     -0.191037
      1.63008      8.39239      4.51472        -0.001052      0.000637      0.005245
      2.42945      9.81850      0.00000        -0.081275     -0.000000      0.182386
      0.80982      9.81850      2.29051         0.066431     -0.000000     -0.107156
      4.04288      9.81850      4.49011        -0.000181     -0.000000      0.007906
     -0.03736      8.43591      6.76726        -0.003356     -0.000619      0.009825
      2.40599      9.81850      6.76413        -0.004586     -0.000000      0.015768
      4.85890      0.00000      0.00000         0.030120     -0.003362      0.167318
      8.09816      0.00000      2.29051         0.051176      0.034306     -0.232313
      6.48023     -0.00031      4.48464         0.000776     -0.001487      0.004647
      7.28834      1.40264      0.00000         0.032372      0.010526      0.156801
      5.66871      1.40264      2.29051        -0.073934      0.080966     -0.184963
      8.91048      1.40635      4.48377         0.000296      0.000415      0.004428
      4.88807     -0.03112      6.73877         0.005521      0.000460      0.008434
      7.31576      1.36214      6.76661         0.000667      0.001118      0.011948
      4.85890      2.80528      0.00000         0.015896     -0.008165      0.181235
      8.09816      2.80528      2.29051        -0.042563      0.024575     -0.195345
      6.45995      2.80377      4.52483         0.004235     -0.000015      0.005618
      7.28834      4.20793      0.00000         0.046184     -0.000000      0.186142
      5.66871      4.20793      2.29051        -0.075575     -0.000000     -0.081842
      8.90289      4.20793      4.48174         0.001482     -0.000000      0.005916
      5.00275      2.78464      6.82385         0.002041      0.001030     -0.002140
      7.33608      4.20793      6.76135        -0.002662     -0.000000      0.007282
      4.85890      5.61057      0.00000         0.015896      0.008165      0.181235
      8.09816      5.61057      2.29051        -0.042563     -0.024575     -0.195345
      6.45995      5.61208      4.52483         0.004235      0.000015      0.005618
      7.28834      7.01321      0.00000         0.032372     -0.010526      0.156801
      5.66871      7.01321      2.29051        -0.073934     -0.080966     -0.184963
      8.91048      7.00951      4.48377         0.000296     -0.000415      0.004428
      5.00275      5.63121      6.82385         0.002041     -0.001030     -0.002140
      7.31576      7.05371      6.76661         0.000667     -0.001118      0.011948
      4.85890      8.41585      0.00000         0.030120      0.003362      0.167318
      8.09816      8.41585      2.29051         0.051176     -0.034306     -0.232313
      6.48023      8.41617      4.48464         0.000776      0.001487      0.004647
      7.28834      9.81850      0.00000         0.001954     -0.000000      0.137995
      5.66871      9.81850      2.29051        -0.075020     -0.000000     -0.275516
      8.92642      9.81850      4.48060         0.000133     -0.000000      0.006067
      4.88807      8.44697      6.73877         0.005521     -0.000460      0.008434
      7.30270      9.81850      6.75642         0.000682     -0.000000      0.012242
      3.27706      2.70811      7.90622         0.003951     -0.001450      0.001268
      3.27706      5.70775      7.90622         0.003951      0.001450      0.001268
 -----------------------------------------------------------------------------------
    total drift:                                0.063182      0.000000     -0.012656


--------------------------------------------------------------------------------------------------------



  FREE ENERGIE OF THE ION-ELECTRON SYSTEM (eV)
  ---------------------------------------------------
  free  energy   TOTEN  =      -417.74969385 eV

  energy  without entropy=     -417.10025255  energy(sigma->0) =     -417.42497320
 
 d Force = 0.1638119E-03[ 0.144E-03, 0.183E-03]  d Energy = 0.1584434E-03 0.537E-05
 d Force = 0.1323573E+02[ 0.132E+02, 0.132E+02]  d Ewald  = 0.1323573E+02 0.136E-05


--------------------------------------------------------------------------------------------------------


    POTLOK:  cpu time    0.0514: real time    0.0521


--------------------------------------------------------------------------------------------------------


 stress matrix after NEB project (eV)
    -83.85844      0.00000     -0.28780
      0.00000    -86.24576      0.00000
     -0.28780      0.00000     -5.30999
  FORCES: max atom, RMS     0.018361    0.006332
  FORCE total and by dimension    0.051439    0.015768
  Stress total and by dimension  120.411503   86.245759
 Quasi-Newton relaxation of ions (Broydens 2nd method)
  g(Force)  = 0.511E-04   g(Stress)= 0.000E+00

 retain information from N=  3 steps
 eigenvalues of (default step * inverse Hessian matrix)
  average eigenvalue of G=   5.3765
 eigenvalue spectrum of G is  6.2269  6.2269  3.6759


--------------------------------------------------------------------------------------------------------


  
 reached required accuracy - stopping structural energy minimisation
     LOOP+:  cpu time   72.9834: real time   73.1753
    4ORBIT:  cpu time    0.0000: real time    0.0000

 total amount of memory used by VASP MPI-rank0    72734. kBytes
=======================================================================

   base      :      30000. kBytes
   nonlr-proj:       5410. kBytes
   fftplans  :       4000. kBytes
   grid      :       6141. kBytes
   one-center:        139. kBytes
   wavefun   :      27044. kBytes
 
  
  
 General timing and accounting informations for this job:
 ========================================================
  
                  Total CPU time used (sec):     2685.091
                            User time (sec):     2259.989
                          System time (sec):      425.102
                         Elapsed time (sec):     2689.997
  
                   Maximum memory used (kb):      956320.
                   Average memory used (kb):           0.
  
                          Minor page faults:       502167
                          Major page faults:            0
                 Voluntary context switches:    124461150
