       N       E                     dE             d eps       ncg     rms          rms(c)
DAV:   1     0.420348399326E+04    0.42035E+04   -0.26918E+05  3920   0.127E+03
DAV:   2    -0.869915425743E+02   -0.42905E+04   -0.40034E+04  4536   0.273E+02
DAV:   3    -0.398480947216E+03   -0.31149E+03   -0.28067E+03  4816   0.670E+01
DAV:   4    -0.409317708723E+03   -0.10837E+02   -0.10581E+02  4312   0.135E+01
DAV:   5    -0.409788058895E+03   -0.47035E+00   -0.47001E+00  5824   0.261E+00    0.911E+01
RMM:   6    -0.404541995336E+03    0.52461E+01   -0.86060E+01  3937   0.143E+01    0.703E+01
RMM:   7    -0.454609825912E+03   -0.50068E+02   -0.17796E+02  3944   0.141E+01    0.773E+01
RMM:   8    -0.459237690096E+03   -0.46279E+01   -0.85995E+01  3936   0.114E+01    0.707E+01
RMM:   9    -0.518835242071E+03   -0.59598E+02   -0.85508E+01  3938   0.975E+00    0.834E+01
RMM:  10    -0.401631474503E+03    0.11720E+03   -0.35424E+01  3921   0.663E+00    0.377E+01
RMM:  11    -0.391513504728E+03    0.10118E+02   -0.23655E+01  3927   0.600E+00    0.334E+01
RMM:  12    -0.382923335345E+03    0.85902E+01   -0.84291E+00  3936   0.356E+00    0.186E+01
RMM:  13    -0.381108435079E+03    0.18149E+01   -0.30365E+00  3942   0.210E+00    0.133E+01
RMM:  14    -0.380431081675E+03    0.67735E+00   -0.95820E-01  3942   0.125E+00    0.994E+00
RMM:  15    -0.380142726272E+03    0.28836E+00   -0.42243E-01  3943   0.834E-01    0.715E+00
RMM:  16    -0.379955060773E+03    0.18767E+00   -0.18656E-01  3941   0.560E-01    0.444E+00
RMM:  17    -0.379925045952E+03    0.30015E-01   -0.16114E-01  3942   0.520E-01    0.362E+00
RMM:  18    -0.379873950024E+03    0.51096E-01   -0.10343E-01  3945   0.407E-01    0.330E+00
RMM:  19    -0.379810872351E+03    0.63078E-01   -0.64587E-02  3943   0.335E-01    0.192E+00
RMM:  20    -0.379800218075E+03    0.10654E-01   -0.24707E-02  3943   0.196E-01    0.160E+00
RMM:  21    -0.379787988227E+03    0.12230E-01   -0.13022E-02  3943   0.144E-01    0.103E+00
RMM:  22    -0.379784240489E+03    0.37477E-02   -0.64406E-03  3942   0.103E-01    0.804E-01
RMM:  23    -0.379781908762E+03    0.23317E-02   -0.28771E-03  3944   0.677E-02    0.494E-01
RMM:  24    -0.379781567584E+03    0.34118E-03   -0.12978E-03  3943   0.453E-02    0.365E-01
RMM:  25    -0.379781286634E+03    0.28095E-03   -0.58138E-04  3943   0.306E-02    0.186E-01
RMM:  26    -0.379781489727E+03   -0.20309E-03   -0.30146E-04  3945   0.217E-02    0.134E-01
RMM:  27    -0.379781622651E+03   -0.13292E-03   -0.12833E-04  3943   0.145E-02    0.959E-02
RMM:  28    -0.379782079170E+03   -0.45652E-03   -0.13543E-04  3943   0.147E-02    0.930E-02
RMM:  29    -0.379782245681E+03   -0.16651E-03   -0.74761E-05  3940   0.108E-02    0.650E-02
RMM:  30    -0.379782419204E+03   -0.17352E-03   -0.32735E-05  3925   0.657E-03    0.495E-02
RMM:  31    -0.379782551660E+03   -0.13246E-03   -0.15737E-05  3849   0.447E-03    0.259E-02
RMM:  32    -0.379782689363E+03   -0.13770E-03   -0.13021E-05  3783   0.397E-03    0.196E-02
RMM:  33    -0.379782881185E+03   -0.19182E-03   -0.18456E-05  3763   0.447E-03    0.139E-02
RMM:  34    -0.379782966521E+03   -0.85336E-04   -0.72974E-06  3085   0.272E-03    0.125E-02
RMM:  35    -0.379783116834E+03   -0.15031E-03   -0.14915E-05  3535   0.364E-03    0.199E-02
RMM:  36    -0.379783176478E+03   -0.59644E-04   -0.55241E-06  2858   0.222E-03    0.138E-02
RMM:  37    -0.379783236310E+03   -0.59832E-04   -0.46353E-06  2774   0.207E-03    0.892E-03
RMM:  38    -0.379783270776E+03   -0.34466E-04   -0.18753E-06  2421   0.127E-03    0.884E-03
RMM:  39    -0.379783316216E+03   -0.45439E-04   -0.26484E-06  2561   0.136E-03    0.575E-03
RMM:  40    -0.379783332278E+03   -0.16062E-04   -0.94574E-07  2233   0.862E-04    0.419E-03
RMM:  41    -0.379783347507E+03   -0.15229E-04   -0.60094E-07  2178   0.775E-04    0.549E-03
RMM:  42    -0.379783355123E+03   -0.76159E-05   -0.25812E-07  1162   0.484E-04    0.209E-03
RMM:  43    -0.379783368992E+03   -0.13870E-04   -0.41269E-07  1619   0.580E-04    0.324E-03
RMM:  44    -0.379783375264E+03   -0.62717E-05   -0.28834E-07  1420   0.493E-04    0.880E-04
RMM:  45    -0.379783379249E+03   -0.39850E-05   -0.17500E-07  1103   0.410E-04    0.615E-04
RMM:  46    -0.379783380790E+03   -0.15414E-05   -0.52906E-08   652   0.326E-04    0.967E-04
RMM:  47    -0.379783382509E+03   -0.17190E-05   -0.41611E-08   662   0.326E-04    0.153E-03
RMM:  48    -0.379783383393E+03   -0.88396E-06   -0.23327E-08   518   0.315E-04
   1 F= -.41488776E+03 E0= -.41454986E+03  d E =-.414888E+03
       N       E                     dE             d eps       ncg     rms          rms(c)
DAV:   1    -0.380063562419E+03   -0.28018E+00   -0.11490E+02  3976   0.162E+01    0.737E+00
RMM:   2    -0.382855748912E+03   -0.27922E+01   -0.31925E+00  3948   0.249E+00    0.195E+01
RMM:   3    -0.380776537381E+03    0.20792E+01   -0.20052E-01  3926   0.575E-01    0.122E+01
RMM:   4    -0.381108634526E+03   -0.33210E+00   -0.11227E-01  3943   0.416E-01    0.131E+01
RMM:   5    -0.381161948259E+03   -0.53314E-01   -0.55930E-01  3941   0.918E-01    0.129E+01
RMM:   6    -0.380604149743E+03    0.55780E+00   -0.59115E-01  3950   0.949E-01    0.774E+00
RMM:   7    -0.380375271749E+03    0.22888E+00   -0.43593E-01  3942   0.801E-01    0.533E+00
RMM:   8    -0.380204032942E+03    0.17124E+00   -0.16189E-01  3944   0.508E-01    0.308E+00
RMM:   9    -0.380156617328E+03    0.47416E-01   -0.20140E-02  3948   0.186E-01    0.165E+00
RMM:  10    -0.380152515943E+03    0.41014E-02   -0.76288E-03  3944   0.107E-01    0.133E+00
RMM:  11    -0.380149001961E+03    0.35140E-02   -0.35643E-03  3948   0.785E-02    0.776E-01
RMM:  12    -0.380148127984E+03    0.87398E-03   -0.28201E-03  3944   0.676E-02    0.548E-01
RMM:  13    -0.380148093407E+03    0.34577E-04   -0.18540E-03  3948   0.549E-02    0.393E-01
RMM:  14    -0.380147253999E+03    0.83941E-03   -0.80842E-04  3949   0.372E-02    0.126E-01
RMM:  15    -0.380147320141E+03   -0.66142E-04   -0.28876E-04  3942   0.215E-02    0.110E-01
RMM:  16    -0.380147420233E+03   -0.10009E-03   -0.13027E-04  3938   0.150E-02    0.677E-02
RMM:  17    -0.380147427678E+03   -0.74449E-05   -0.42787E-05  3932   0.859E-03    0.246E-02
RMM:  18    -0.380147480924E+03   -0.53246E-04   -0.12027E-05  3902   0.425E-03    0.272E-02
RMM:  19    -0.380147529196E+03   -0.48272E-04   -0.51142E-06  2968   0.277E-03    0.242E-02
RMM:  20    -0.380147559957E+03   -0.30761E-04   -0.26223E-06  2442   0.201E-03    0.167E-02
RMM:  21    -0.380147624001E+03   -0.64044E-04   -0.45710E-06  2827   0.231E-03    0.846E-03
RMM:  22    -0.380147675635E+03   -0.51634E-04   -0.37398E-06  2640   0.195E-03    0.327E-03
RMM:  23    -0.380147712259E+03   -0.36624E-04   -0.24233E-06  2444   0.148E-03    0.446E-03
RMM:  24    -0.380147768036E+03   -0.55777E-04   -0.61628E-06  2976   0.218E-03    0.499E-03
RMM:  25    -0.380147783658E+03   -0.15622E-04   -0.15392E-06  2319   0.112E-03    0.370E-03
RMM:  26    -0.380147798567E+03   -0.14909E-04   -0.12730E-06  2210   0.979E-04    0.238E-03
RMM:  27    -0.380147805600E+03   -0.70329E-05   -0.52429E-07  1733   0.629E-04    0.167E-03
RMM:  28    -0.380147814571E+03   -0.89715E-05   -0.71978E-07  2081   0.724E-04    0.185E-03
RMM:  29    -0.380147818308E+03   -0.37364E-05   -0.31195E-07  1249   0.483E-04    0.209E-03
RMM:  30    -0.380147820747E+03   -0.24396E-05   -0.16626E-07  1118   0.428E-04    0.187E-03
RMM:  31    -0.380147823332E+03   -0.25846E-05   -0.13919E-07  1166   0.416E-04    0.125E-03
RMM:  32    -0.380147824883E+03   -0.15514E-05   -0.85544E-08   896   0.362E-04    0.120E-03
RMM:  33    -0.380147826042E+03   -0.11591E-05   -0.59296E-08   772   0.349E-04    0.847E-04
RMM:  34    -0.380147826601E+03   -0.55876E-06   -0.26227E-08   567   0.326E-04
   2 F= -.41527670E+03 E0= -.41493585E+03  d E =-.388938E+00
       N       E                     dE             d eps       ncg     rms          rms(c)
DAV:   1    -0.380164070188E+03   -0.16244E-01   -0.40028E+00  4032   0.299E+00    0.643E-01
RMM:   2    -0.380237875788E+03   -0.73806E-01   -0.10680E-01  3948   0.479E-01    0.364E+00
RMM:   3    -0.380177552072E+03    0.60324E-01   -0.91728E-03  3951   0.134E-01    0.155E+00
RMM:   4    -0.380182546314E+03   -0.49942E-02   -0.33304E-03  3958   0.744E-02    0.167E+00
RMM:   5    -0.380178394072E+03    0.41522E-02   -0.53456E-03  3941   0.910E-02    0.139E+00
RMM:   6    -0.380172885983E+03    0.55081E-02   -0.42841E-03  3946   0.827E-02    0.948E-01
RMM:   7    -0.380170072629E+03    0.28134E-02   -0.25007E-03  3944   0.627E-02    0.566E-01
RMM:   8    -0.380168938568E+03    0.11341E-02   -0.11031E-03  3942   0.431E-02    0.247E-01
RMM:   9    -0.380168809524E+03    0.12904E-03   -0.24125E-04  3943   0.211E-02    0.142E-01
RMM:  10    -0.380168803751E+03    0.57726E-05   -0.62158E-05  3946   0.984E-03    0.121E-01
RMM:  11    -0.380168810481E+03   -0.67298E-05   -0.94854E-05  3931   0.124E-02    0.974E-02
RMM:  12    -0.380168772243E+03    0.38238E-04   -0.74056E-05  3949   0.114E-02    0.414E-02
RMM:  13    -0.380168770302E+03    0.19407E-05   -0.13824E-05  3920   0.502E-03    0.254E-02
RMM:  14    -0.380168769962E+03    0.34007E-06   -0.40161E-06  2753   0.270E-03
   3 F= -.41529114E+03 E0= -.41495058E+03  d E =-.144359E-01
       N       E                     dE             d eps       ncg     rms          rms(c)
DAV:   1    -0.380168959791E+03   -0.18949E-03   -0.61506E+00  4032   0.390E+00    0.532E-01
RMM:   2    -0.380225418975E+03   -0.56459E-01   -0.13317E-01  3950   0.543E-01    0.290E+00
RMM:   3    -0.380193972735E+03    0.31446E-01   -0.16581E-02  3968   0.164E-01    0.146E+00
RMM:   4    -0.380178377445E+03    0.15595E-01   -0.44984E-03  3950   0.877E-02    0.458E-01
RMM:   5    -0.380178705644E+03   -0.32820E-03   -0.21730E-03  3944   0.595E-02    0.544E-01
RMM:   6    -0.380177711231E+03    0.99441E-03   -0.11610E-03  3948   0.434E-02    0.411E-01
RMM:   7    -0.380177417803E+03    0.29343E-03   -0.58507E-04  3943   0.308E-02    0.308E-01
RMM:   8    -0.380177194232E+03    0.22357E-03   -0.67516E-04  3946   0.336E-02    0.188E-01
RMM:   9    -0.380176988888E+03    0.20534E-03   -0.24271E-04  3943   0.204E-02    0.843E-02
RMM:  10    -0.380176975135E+03    0.13754E-04   -0.46052E-05  3944   0.864E-03    0.651E-02
RMM:  11    -0.380176965831E+03    0.93036E-05   -0.31381E-05  3924   0.713E-03    0.440E-02
RMM:  12    -0.380176958474E+03    0.73572E-05   -0.21959E-05  3927   0.606E-03    0.200E-02
RMM:  13    -0.380176960044E+03   -0.15700E-05   -0.52203E-06  3221   0.304E-03    0.159E-02
RMM:  14    -0.380176959924E+03    0.11949E-06   -0.14497E-06  2179   0.174E-03
   4 F= -.41529327E+03 E0= -.41495287E+03  d E =-.213140E-02
       N       E                     dE             d eps       ncg     rms          rms(c)
DAV:   1    -0.380164595474E+03    0.12365E-01   -0.11185E+01  3920   0.542E+00    0.748E-01
RMM:   2    -0.380231154834E+03   -0.66559E-01   -0.23191E-01  3957   0.713E-01    0.281E+00
RMM:   3    -0.380231851958E+03   -0.69712E-03   -0.33811E-02  3964   0.224E-01    0.252E+00
RMM:   4    -0.380183247147E+03    0.48605E-01   -0.93775E-03  3958   0.124E-01    0.692E-01
RMM:   5    -0.380182176272E+03    0.10709E-02   -0.30992E-03  3944   0.718E-02    0.559E-01
RMM:   6    -0.380180786062E+03    0.13902E-02   -0.16242E-03  3948   0.514E-02    0.449E-01
RMM:   7    -0.380180318449E+03    0.46761E-03   -0.74483E-04  3944   0.352E-02    0.306E-01
RMM:   8    -0.380180137593E+03    0.18086E-03   -0.91032E-04  3949   0.381E-02    0.227E-01
RMM:   9    -0.380179866578E+03    0.27101E-03   -0.44162E-04  3943   0.275E-02    0.992E-02
RMM:  10    -0.380179805628E+03    0.60951E-04   -0.78387E-05  3945   0.115E-02    0.460E-02
RMM:  11    -0.380179794480E+03    0.11148E-04   -0.20457E-05  3926   0.577E-03    0.267E-02
RMM:  12    -0.380179790201E+03    0.42794E-05   -0.14685E-05  3921   0.496E-03    0.181E-02
RMM:  13    -0.380179790458E+03   -0.25706E-06   -0.84340E-06  3867   0.375E-03
   5 F= -.41528978E+03 E0= -.41494945E+03  d E =0.348496E-02
       N       E                     dE             d eps       ncg     rms          rms(c)
DAV:   1    -0.380052742798E+03    0.12705E+00   -0.83153E+01  3920   0.149E+01    0.208E+00
RMM:   2    -0.380535894486E+03   -0.48315E+00   -0.18967E+00  3958   0.197E+00    0.729E+00
RMM:   3    -0.380625696034E+03   -0.89802E-01   -0.25584E-01  3963   0.603E-01    0.725E+00
RMM:   4    -0.380203240984E+03    0.42246E+00   -0.76040E-02  3958   0.340E-01    0.205E+00
RMM:   5    -0.380189634091E+03    0.13607E-01   -0.22169E-02  3944   0.192E-01    0.151E+00
RMM:   6    -0.380180548502E+03    0.90856E-02   -0.11624E-02  3948   0.137E-01    0.129E+00
RMM:   7    -0.380175836902E+03    0.47116E-02   -0.58122E-03  3946   0.981E-02    0.888E-01
RMM:   8    -0.380173845107E+03    0.19918E-02   -0.62712E-03  3945   0.998E-02    0.660E-01
RMM:   9    -0.380171827457E+03    0.20176E-02   -0.40599E-03  3947   0.831E-02    0.317E-01
RMM:  10    -0.380171415025E+03    0.41243E-03   -0.11175E-03  3946   0.432E-02    0.216E-01
RMM:  11    -0.380171225635E+03    0.18939E-03   -0.38940E-04  3940   0.250E-02    0.142E-01
RMM:  12    -0.380171064323E+03    0.16131E-03   -0.16117E-04  3941   0.169E-02    0.528E-02
RMM:  13    -0.380171064358E+03   -0.35325E-07   -0.63587E-05  3940   0.103E-02    0.530E-02
RMM:  14    -0.380171070544E+03   -0.61858E-05   -0.30086E-05  3930   0.701E-03    0.553E-02
RMM:  15    -0.380171056507E+03    0.14037E-04   -0.12700E-05  3913   0.470E-03    0.169E-02
RMM:  16    -0.380171056426E+03    0.80763E-07   -0.30684E-06  2547   0.237E-03
   6 F= -.41526481E+03 E0= -.41492451E+03  d E =0.249792E-01
       N       E                     dE             d eps       ncg     rms          rms(c)
DAV:   1    -0.380156321404E+03    0.14735E-01   -0.68719E+00  3920   0.441E+00    0.612E-01
RMM:   2    -0.380198558219E+03   -0.42237E-01   -0.15360E-01  3952   0.559E-01    0.210E+00
RMM:   3    -0.380200428080E+03   -0.18699E-02   -0.20238E-02  3968   0.169E-01    0.202E+00
RMM:   4    -0.380168703142E+03    0.31725E-01   -0.80242E-03  3945   0.111E-01    0.582E-01
RMM:   5    -0.380166920829E+03    0.17823E-02   -0.25235E-03  3944   0.637E-02    0.366E-01
RMM:   6    -0.380166263011E+03    0.65782E-03   -0.10259E-03  3948   0.418E-02    0.272E-01
RMM:   7    -0.380166185597E+03    0.77414E-04   -0.56063E-04  3944   0.305E-02    0.222E-01
RMM:   8    -0.380166167949E+03    0.17648E-04   -0.50946E-04  3943   0.288E-02    0.170E-01
RMM:   9    -0.380166007391E+03    0.16056E-03   -0.25125E-04  3948   0.210E-02    0.799E-02
RMM:  10    -0.380165966231E+03    0.41160E-04   -0.49715E-05  3944   0.925E-03    0.368E-02
RMM:  11    -0.380165960160E+03    0.60708E-05   -0.11955E-05  3914   0.444E-03    0.198E-02
RMM:  12    -0.380165960964E+03   -0.80404E-06   -0.79832E-06  3864   0.369E-03
   7 F= -.41525497E+03 E0= -.41491462E+03  d E =0.983269E-02
       N       E                     dE             d eps       ncg     rms          rms(c)
DAV:   1    -0.380100150580E+03    0.65810E-01   -0.36802E+01  3920   0.103E+01    0.145E+00
RMM:   2    -0.380296418290E+03   -0.19627E+00   -0.88017E-01  3952   0.130E+00    0.424E+00
RMM:   3    -0.380365158917E+03   -0.68741E-01   -0.10832E-01  3969   0.386E-01    0.494E+00
RMM:   4    -0.380170475719E+03    0.19468E+00   -0.44203E-02  3946   0.255E-01    0.140E+00
RMM:   5    -0.380159465941E+03    0.11010E-01   -0.13558E-02  3944   0.147E-01    0.828E-01
RMM:   6    -0.380156021768E+03    0.34442E-02   -0.56237E-03  3948   0.977E-02    0.630E-01
RMM:   7    -0.380155741579E+03    0.28019E-03   -0.33161E-03  3944   0.743E-02    0.570E-01
RMM:   8    -0.380155364811E+03    0.37677E-03   -0.27270E-03  3943   0.670E-02    0.407E-01
RMM:   9    -0.380154533004E+03    0.83181E-03   -0.15702E-03  3948   0.529E-02    0.205E-01
RMM:  10    -0.380154256296E+03    0.27671E-03   -0.34598E-04  3943   0.244E-02    0.100E-01
RMM:  11    -0.380154203267E+03    0.53029E-04   -0.82110E-05  3945   0.116E-02    0.561E-02
RMM:  12    -0.380154182690E+03    0.20577E-04   -0.34425E-05  3936   0.787E-03    0.290E-02
RMM:  13    -0.380154186122E+03   -0.34314E-05   -0.23629E-05  3929   0.635E-03    0.264E-02
RMM:  14    -0.380154192935E+03   -0.68135E-05   -0.10747E-05  3911   0.430E-03    0.315E-02
RMM:  15    -0.380154188902E+03    0.40335E-05   -0.33962E-06  2581   0.255E-03    0.115E-02
RMM:  16    -0.380154189032E+03   -0.13052E-06   -0.10957E-06  2099   0.148E-03
   8 F= -.41523239E+03 E0= -.41489165E+03  d E =0.225826E-01
       N       E                     dE             d eps       ncg     rms          rms(c)
DAV:   1    -0.380149313501E+03    0.48754E-02   -0.22441E+00  4032   0.260E+00    0.386E-01
RMM:   2    -0.380158778241E+03   -0.94647E-02   -0.52183E-02  3952   0.316E-01    0.856E-01
RMM:   3    -0.380163827359E+03   -0.50491E-02   -0.63128E-03  3967   0.942E-02    0.118E+00
RMM:   4    -0.380154050845E+03    0.97765E-02   -0.27251E-03  3948   0.640E-02    0.445E-01
RMM:   5    -0.380152961952E+03    0.10889E-02   -0.11092E-03  3943   0.418E-02    0.249E-01
RMM:   6    -0.380152716736E+03    0.24522E-03   -0.51401E-04  3944   0.296E-02    0.195E-01
RMM:   7    -0.380152678468E+03    0.38267E-04   -0.29036E-04  3946   0.218E-02    0.168E-01
RMM:   8    -0.380152620236E+03    0.58232E-04   -0.17679E-04  3943   0.171E-02    0.996E-02
RMM:   9    -0.380152569715E+03    0.50521E-04   -0.81194E-05  3945   0.121E-02    0.470E-02
RMM:  10    -0.380152557753E+03    0.11962E-04   -0.16958E-05  3914   0.544E-03    0.227E-02
RMM:  11    -0.380152556488E+03    0.12650E-05   -0.40712E-06  2835   0.267E-03    0.140E-02
RMM:  12    -0.380152557869E+03   -0.13807E-05   -0.22891E-06  2209   0.219E-03    0.872E-03
RMM:  13    -0.380152558565E+03   -0.69572E-06   -0.11682E-06  2106   0.167E-03
   9 F= -.41522877E+03 E0= -.41488776E+03  d E =0.362489E-02
       N       E                     dE             d eps       ncg     rms          rms(c)
DAV:   1    -0.380140708814E+03    0.11849E-01   -0.80081E+00  3920   0.490E+00    0.738E-01
RMM:   2    -0.380172033752E+03   -0.31325E-01   -0.19103E-01  3952   0.601E-01    0.148E+00
RMM:   3    -0.380188931638E+03   -0.16898E-01   -0.21758E-02  3971   0.176E-01    0.213E+00
RMM:   4    -0.380158197541E+03    0.30734E-01   -0.91222E-03  3951   0.117E-01    0.860E-01
RMM:   5    -0.380153963244E+03    0.42343E-02   -0.41014E-03  3944   0.801E-02    0.483E-01
RMM:   6    -0.380152999008E+03    0.96424E-03   -0.19127E-03  3944   0.571E-02    0.372E-01
RMM:   7    -0.380152853137E+03    0.14587E-03   -0.11034E-03  3947   0.425E-02    0.325E-01
RMM:   8    -0.380152613635E+03    0.23950E-03   -0.64171E-04  3943   0.327E-02    0.190E-01
RMM:   9    -0.380152422466E+03    0.19117E-03   -0.30238E-04  3943   0.234E-02    0.937E-02
RMM:  10    -0.380152370457E+03    0.52009E-04   -0.64580E-05  3944   0.106E-02    0.438E-02
RMM:  11    -0.380152362526E+03    0.79311E-05   -0.15653E-05  3925   0.506E-03    0.254E-02
RMM:  12    -0.380152362068E+03    0.45809E-06   -0.80568E-06  3891   0.378E-03
  10 F= -.41522519E+03 E0= -.41488359E+03  d E =0.357530E-02
       N       E                     dE             d eps       ncg     rms          rms(c)
DAV:   1    -0.380153182063E+03   -0.81954E-03   -0.45633E-01  3920   0.108E+00    0.165E-01
RMM:   2    -0.380154638912E+03   -0.14568E-02   -0.95358E-03  3953   0.145E-01    0.320E-01
RMM:   3    -0.380154640936E+03   -0.20243E-05   -0.10180E-03  3970   0.399E-02    0.347E-01
RMM:   4    -0.380154282955E+03    0.35798E-03   -0.38927E-04  3967   0.240E-02    0.249E-01
RMM:   5    -0.380153880737E+03    0.40222E-03   -0.25149E-04  3944   0.194E-02    0.128E-01
RMM:   6    -0.380153823160E+03    0.57577E-04   -0.11714E-04  3944   0.141E-02    0.983E-02
RMM:   7    -0.380153807382E+03    0.15779E-04   -0.72192E-05  3947   0.108E-02    0.758E-02
RMM:   8    -0.380153798104E+03    0.92781E-05   -0.40213E-05  3930   0.817E-03    0.456E-02
RMM:   9    -0.380153786441E+03    0.11663E-04   -0.16607E-05  3910   0.546E-03    0.209E-02
RMM:  10    -0.380153784236E+03    0.22045E-05   -0.32593E-06  2517   0.250E-03    0.113E-02
RMM:  11    -0.380153784105E+03    0.13063E-06   -0.10856E-06  2044   0.147E-03
  11 F= -.41522654E+03 E0= -.41488473E+03  d E =-.135207E-02
       N       E                     dE             d eps       ncg     rms          rms(c)
DAV:   1    -0.380154919239E+03   -0.11350E-02   -0.21566E+00  3920   0.228E+00    0.349E-01
RMM:   2    -0.380161336235E+03   -0.64170E-02   -0.42972E-02  3953   0.314E-01    0.655E-01
RMM:   3    -0.380161422803E+03   -0.86567E-04   -0.45820E-03  3969   0.849E-02    0.730E-01
RMM:   4    -0.380159602833E+03    0.18200E-02   -0.16067E-03  3968   0.490E-02    0.494E-01
RMM:   5    -0.380158141570E+03    0.14613E-02   -0.11075E-03  3944   0.406E-02    0.288E-01
RMM:   6    -0.380157857827E+03    0.28374E-03   -0.57621E-04  3944   0.310E-02    0.234E-01
RMM:   7    -0.380157723934E+03    0.13389E-03   -0.38022E-04  3949   0.248E-02    0.170E-01
RMM:   8    -0.380157649525E+03    0.74408E-04   -0.19989E-04  3943   0.182E-02    0.100E-01
RMM:   9    -0.380157594888E+03    0.54638E-04   -0.77967E-05  3946   0.118E-02    0.512E-02
RMM:  10    -0.380157579933E+03    0.14955E-04   -0.18535E-05  3917   0.567E-03    0.241E-02
RMM:  11    -0.380157577808E+03    0.21252E-05   -0.47265E-06  3087   0.285E-03    0.150E-02
RMM:  12    -0.380157577952E+03   -0.14369E-06   -0.36396E-06  2617   0.258E-03
  12 F= -.41523077E+03 E0= -.41488851E+03  d E =-.422663E-02
       N       E                     dE             d eps       ncg     rms          rms(c)
DAV:   1    -0.380159862607E+03   -0.22848E-02   -0.11919E+00  3920   0.166E+00    0.255E-01
RMM:   2    -0.380163485864E+03   -0.36233E-02   -0.22946E-02  3952   0.232E-01    0.508E-01
RMM:   3    -0.380163199770E+03    0.28609E-03   -0.25223E-03  3964   0.634E-02    0.529E-01
RMM:   4    -0.380162076562E+03    0.11232E-02   -0.79153E-04  3973   0.349E-02    0.326E-01
RMM:   5    -0.380161500389E+03    0.57617E-03   -0.56226E-04  3945   0.290E-02    0.208E-01
RMM:   6    -0.380161394090E+03    0.10630E-03   -0.33041E-04  3944   0.234E-02    0.183E-01
RMM:   7    -0.380161306373E+03    0.87718E-04   -0.21628E-04  3949   0.188E-02    0.130E-01
RMM:   8    -0.380161262120E+03    0.44252E-04   -0.11639E-04  3943   0.138E-02    0.763E-02
RMM:   9    -0.380161230403E+03    0.31718E-04   -0.43729E-05  3932   0.879E-03    0.398E-02
RMM:  10    -0.380161221152E+03    0.92510E-05   -0.10776E-05  3903   0.433E-03    0.182E-02
RMM:  11    -0.380161219884E+03    0.12674E-05   -0.24125E-06  2237   0.212E-03    0.111E-02
RMM:  12    -0.380161220446E+03   -0.56206E-06   -0.22514E-06  2195   0.208E-03
  13 F= -.41523485E+03 E0= -.41489228E+03  d E =-.407735E-02
       N       E                     dE             d eps       ncg     rms          rms(c)
DAV:   1    -0.380158462857E+03    0.27570E-02   -0.46731E-01  3920   0.106E+00    0.164E-01
RMM:   2    -0.380159882239E+03   -0.14194E-02   -0.91756E-03  3951   0.146E-01    0.322E-01
RMM:   3    -0.380159592346E+03    0.28989E-03   -0.98314E-04  3964   0.397E-02    0.299E-01
RMM:   4    -0.380159568337E+03    0.24009E-04   -0.34828E-04  3973   0.228E-02    0.259E-01
RMM:   5    -0.380159146138E+03    0.42220E-03   -0.26617E-04  3946   0.196E-02    0.146E-01
RMM:   6    -0.380159082369E+03    0.63769E-04   -0.13418E-04  3944   0.150E-02    0.119E-01
RMM:   7    -0.380159041721E+03    0.40648E-04   -0.90010E-05  3947   0.121E-02    0.774E-02
RMM:   8    -0.380159029360E+03    0.12361E-04   -0.45658E-05  3936   0.868E-03    0.483E-02
RMM:   9    -0.380159017120E+03    0.12239E-04   -0.17218E-05  3910   0.554E-03    0.246E-02
RMM:  10    -0.380159013940E+03    0.31798E-05   -0.40641E-06  2844   0.274E-03    0.116E-02
RMM:  11    -0.380159013509E+03    0.43138E-06   -0.11462E-06  2040   0.150E-03
  14 F= -.41523247E+03 E0= -.41489010E+03  d E =0.237130E-02
       N       E                     dE             d eps       ncg     rms          rms(c)
DAV:   1    -0.380159060021E+03   -0.46081E-04   -0.23115E-02  4256   0.260E-01    0.316E-02
RMM:   2    -0.380159122881E+03   -0.62860E-04   -0.47991E-04  3954   0.312E-02    0.601E-02
RMM:   3    -0.380159154072E+03   -0.31191E-04   -0.36635E-05  3942   0.754E-03    0.852E-02
RMM:   4    -0.380159119698E+03    0.34375E-04   -0.20679E-05  3891   0.528E-03    0.568E-02
RMM:   5    -0.380159101367E+03    0.18331E-04   -0.89824E-06  3835   0.383E-03    0.262E-02
RMM:   6    -0.380159097756E+03    0.36105E-05   -0.40886E-06  2824   0.272E-03    0.109E-02
RMM:   7    -0.380159098689E+03   -0.93261E-06   -0.18956E-06  2163   0.195E-03
  15 F= -.41523274E+03 E0= -.41489038E+03  d E =-.261758E-03
       N       E                     dE             d eps       ncg     rms          rms(c)
DAV:   1    -0.380159803485E+03   -0.70573E-03   -0.72196E-01  3920   0.138E+00    0.153E-01
RMM:   2    -0.380161348042E+03   -0.15446E-02   -0.13402E-02  3954   0.174E-01    0.233E-01
RMM:   3    -0.380161587913E+03   -0.23987E-03   -0.90792E-04  3964   0.395E-02    0.306E-01
RMM:   4    -0.380161565148E+03    0.22764E-04   -0.37698E-04  3966   0.224E-02    0.282E-01
RMM:   5    -0.380160970833E+03    0.59432E-03   -0.22631E-04  3945   0.185E-02    0.119E-01
RMM:   6    -0.380160916390E+03    0.54443E-04   -0.10251E-04  3943   0.129E-02    0.898E-02
RMM:   7    -0.380160910553E+03    0.58367E-05   -0.61777E-05  3937   0.101E-02    0.742E-02
RMM:   8    -0.380160901731E+03    0.88219E-05   -0.52265E-05  3940   0.951E-03    0.492E-02
RMM:   9    -0.380160886811E+03    0.14921E-04   -0.20818E-05  3924   0.602E-03    0.195E-02
RMM:  10    -0.380160884544E+03    0.22661E-05   -0.33225E-06  2515   0.251E-03    0.106E-02
RMM:  11    -0.380160884071E+03    0.47329E-06   -0.10749E-06  2049   0.146E-03
  16 F= -.41523564E+03 E0= -.41489323E+03  d E =-.290841E-02
       N       E                     dE             d eps       ncg     rms          rms(c)
DAV:   1    -0.380162238735E+03   -0.13542E-02   -0.14889E+00  3920   0.192E+00    0.227E-01
RMM:   2    -0.380166058130E+03   -0.38194E-02   -0.27187E-02  3955   0.252E-01    0.457E-01
RMM:   3    -0.380166745693E+03   -0.68756E-03   -0.22280E-03  3968   0.603E-02    0.565E-01
RMM:   4    -0.380164946173E+03    0.17995E-02   -0.81321E-04  3962   0.348E-02    0.289E-01
RMM:   5    -0.380164457875E+03    0.48830E-03   -0.41248E-04  3942   0.254E-02    0.178E-01
RMM:   6    -0.380164355008E+03    0.10287E-03   -0.23131E-04  3945   0.195E-02    0.145E-01
RMM:   7    -0.380164317178E+03    0.37830E-04   -0.16034E-04  3943   0.162E-02    0.111E-01
RMM:   8    -0.380164297508E+03    0.19670E-04   -0.11952E-04  3942   0.142E-02    0.766E-02
RMM:   9    -0.380164262754E+03    0.34753E-04   -0.51540E-05  3941   0.953E-03    0.358E-02
RMM:  10    -0.380164254646E+03    0.81081E-05   -0.99205E-06  3899   0.412E-03    0.154E-02
RMM:  11    -0.380164253470E+03    0.11766E-05   -0.21048E-06  2178   0.198E-03    0.962E-03
RMM:  12    -0.380164252968E+03    0.50184E-06   -0.25207E-06  2220   0.224E-03
  17 F= -.41524031E+03 E0= -.41489776E+03  d E =-.466606E-02
       N       E                     dE             d eps       ncg     rms          rms(c)
DAV:   1    -0.380160401572E+03    0.38519E-02   -0.84457E+00  3920   0.460E+00    0.571E-01
RMM:   2    -0.380185080771E+03   -0.24679E-01   -0.16122E-01  3950   0.605E-01    0.123E+00
RMM:   3    -0.380191533958E+03   -0.64532E-02   -0.14371E-02  3960   0.151E-01    0.157E+00
RMM:   4    -0.380174804800E+03    0.16729E-01   -0.52934E-03  3958   0.894E-02    0.620E-01
RMM:   5    -0.380172798746E+03    0.20061E-02   -0.23983E-03  3943   0.618E-02    0.428E-01
RMM:   6    -0.380172289931E+03    0.50881E-03   -0.13860E-03  3945   0.479E-02    0.363E-01
RMM:   7    -0.380172026013E+03    0.26392E-03   -0.10089E-03  3943   0.407E-02    0.273E-01
RMM:   8    -0.380171919299E+03    0.10671E-03   -0.69567E-04  3943   0.344E-02    0.195E-01
RMM:   9    -0.380171711453E+03    0.20785E-03   -0.31097E-04  3952   0.235E-02    0.977E-02
RMM:  10    -0.380171648388E+03    0.63065E-04   -0.68212E-05  3943   0.107E-02    0.377E-02
RMM:  11    -0.380171640520E+03    0.78682E-05   -0.14469E-05  3923   0.484E-03    0.219E-02
RMM:  12    -0.380171638056E+03    0.24633E-05   -0.15299E-05  3912   0.501E-03    0.175E-02
RMM:  13    -0.380171637352E+03    0.70428E-06   -0.67598E-06  3637   0.333E-03
  18 F= -.41525032E+03 E0= -.41490750E+03  d E =-.100097E-01
       N       E                     dE             d eps       ncg     rms          rms(c)
DAV:   1    -0.380172262380E+03   -0.62432E-03   -0.66227E-02  3920   0.415E-01    0.609E-02
RMM:   2    -0.380172509692E+03   -0.24731E-03   -0.13477E-03  3952   0.540E-02    0.139E-01
RMM:   3    -0.380172563394E+03   -0.53702E-04   -0.15497E-04  3954   0.154E-02    0.170E-01
RMM:   4    -0.380172373041E+03    0.19035E-03   -0.54255E-05  3942   0.929E-03    0.651E-02
RMM:   5    -0.380172361002E+03    0.12039E-04   -0.25732E-05  3921   0.641E-03    0.488E-02
RMM:   6    -0.380172357181E+03    0.38201E-05   -0.16596E-05  3917   0.522E-03    0.429E-02
RMM:   7    -0.380172353008E+03    0.41733E-05   -0.12588E-05  3898   0.457E-03    0.286E-02
RMM:   8    -0.380172352064E+03    0.94379E-06   -0.66413E-06  3607   0.337E-03
  19 F= -.41525120E+03 E0= -.41490836E+03  d E =-.877651E-03
       N       E                     dE             d eps       ncg     rms          rms(c)
DAV:   1    -0.380171855346E+03    0.49766E-03   -0.18036E-02  3920   0.221E-01    0.367E-02
RMM:   2    -0.380171963350E+03   -0.10800E-03   -0.43354E-04  3949   0.294E-02    0.102E-01
RMM:   3    -0.380171973622E+03   -0.10271E-04   -0.63579E-05  3936   0.971E-03    0.112E-01
RMM:   4    -0.380171884104E+03    0.89518E-04   -0.22073E-05  3900   0.597E-03    0.351E-02
RMM:   5    -0.380171880476E+03    0.36281E-05   -0.84399E-06  3819   0.372E-03    0.250E-02
RMM:   6    -0.380171881375E+03   -0.89958E-06   -0.44891E-06  2930   0.274E-03
  20 F= -.41525072E+03 E0= -.41490790E+03  d E =0.474276E-03
       N       E                     dE             d eps       ncg     rms          rms(c)
DAV:   1    -0.380172320746E+03   -0.44027E-03   -0.21324E-02  3920   0.237E-01    0.492E-02
RMM:   2    -0.380172430716E+03   -0.10997E-03   -0.56771E-04  3949   0.337E-02    0.102E-01
RMM:   3    -0.380172398486E+03    0.32230E-04   -0.79299E-05  3946   0.114E-02    0.879E-02
RMM:   4    -0.380172391570E+03    0.69166E-05   -0.32949E-05  3917   0.643E-03    0.865E-02
RMM:   5    -0.380172342392E+03    0.49177E-04   -0.10995E-05  3844   0.438E-03    0.320E-02
RMM:   6    -0.380172350643E+03   -0.82504E-05   -0.12163E-05  3897   0.443E-03    0.404E-02
RMM:   7    -0.380172344883E+03    0.57594E-05   -0.93692E-06  3866   0.395E-03    0.263E-02
RMM:   8    -0.380172342554E+03    0.23296E-05   -0.33555E-06  2570   0.242E-03    0.146E-02
RMM:   9    -0.380172341787E+03    0.76648E-06   -0.14029E-06  2106   0.172E-03
  21 F= -.41525126E+03 E0= -.41490840E+03  d E =-.532905E-03
       N       E                     dE             d eps       ncg     rms          rms(c)
DAV:   1    -0.380172166727E+03    0.17583E-03   -0.38344E-03  3920   0.102E-01    0.123E-02
RMM:   2    -0.380172179704E+03   -0.12977E-04   -0.79115E-05  3925   0.129E-02    0.296E-02
RMM:   3    -0.380172183461E+03   -0.37572E-05   -0.62197E-06  3357   0.311E-03    0.359E-02
RMM:   4    -0.380172174616E+03    0.88449E-05   -0.32990E-06  2543   0.240E-03    0.160E-02
RMM:   5    -0.380172173564E+03    0.10522E-05   -0.12618E-06  2114   0.163E-03    0.118E-02
RMM:   6    -0.380172173055E+03    0.50902E-06   -0.48325E-07  1989   0.106E-03
  22 F= -.41525110E+03 E0= -.41490824E+03  d E =0.157505E-03
       N       E                     dE             d eps       ncg     rms          rms(c)
DAV:   1    -0.380171689623E+03    0.48394E-03   -0.31578E-02  3920   0.290E-01    0.424E-02
RMM:   2    -0.380171776517E+03   -0.86894E-04   -0.64712E-04  3952   0.371E-02    0.712E-02
RMM:   3    -0.380171758114E+03    0.18403E-04   -0.59281E-05  3946   0.991E-03    0.642E-02
RMM:   4    -0.380171782263E+03   -0.24148E-04   -0.20553E-05  3906   0.534E-03    0.762E-02
RMM:   5    -0.380171743882E+03    0.38381E-04   -0.18000E-05  3899   0.497E-03    0.380E-02
RMM:   6    -0.380171737871E+03    0.60103E-05   -0.99455E-06  3868   0.412E-03    0.261E-02
RMM:   7    -0.380171736194E+03    0.16772E-05   -0.52403E-06  3325   0.299E-03    0.190E-02
RMM:   8    -0.380171735571E+03    0.62320E-06   -0.25448E-06  2297   0.228E-03
  23 F= -.41525055E+03 E0= -.41490770E+03  d E =0.545462E-03
       N       E                     dE             d eps       ncg     rms          rms(c)
DAV:   1    -0.380172925455E+03   -0.11893E-02   -0.25751E+00  3920   0.264E+00    0.380E-01
RMM:   2    -0.380182226887E+03   -0.93014E-02   -0.55738E-02  3948   0.338E-01    0.801E-01
RMM:   3    -0.380185934382E+03   -0.37075E-02   -0.59922E-03  3953   0.948E-02    0.110E+00
RMM:   4    -0.380177466263E+03    0.84681E-02   -0.21906E-03  3959   0.583E-02    0.384E-01
RMM:   5    -0.380176929691E+03    0.53657E-03   -0.98950E-04  3943   0.397E-02    0.289E-01
RMM:   6    -0.380176799951E+03    0.12974E-03   -0.60459E-04  3945   0.315E-02    0.268E-01
RMM:   7    -0.380176606112E+03    0.19384E-03   -0.45238E-04  3943   0.273E-02    0.181E-01
RMM:   8    -0.380176532765E+03    0.73347E-04   -0.24952E-04  3942   0.204E-02    0.119E-01
RMM:   9    -0.380176467425E+03    0.65340E-04   -0.10993E-04  3947   0.141E-02    0.671E-02
RMM:  10    -0.380176438028E+03    0.29397E-04   -0.28812E-05  3929   0.699E-03    0.229E-02
RMM:  11    -0.380176434956E+03    0.30712E-05   -0.51740E-06  3215   0.294E-03    0.116E-02
RMM:  12    -0.380176434737E+03    0.21885E-06   -0.37472E-06  2649   0.262E-03
  24 F= -.41525566E+03 E0= -.41491275E+03  d E =-.510159E-02
       N       E                     dE             d eps       ncg     rms          rms(c)
DAV:   1    -0.380167149246E+03    0.92857E-02   -0.31422E+00  3920   0.293E+00    0.403E-01
RMM:   2    -0.380177539297E+03   -0.10390E-01   -0.64614E-02  3948   0.368E-01    0.831E-01
RMM:   3    -0.380182341211E+03   -0.48019E-02   -0.67679E-03  3953   0.101E-01    0.117E+00
RMM:   4    -0.380172972194E+03    0.93690E-02   -0.26297E-03  3956   0.640E-02    0.440E-01
RMM:   5    -0.380172196750E+03    0.77544E-03   -0.11879E-03  3942   0.434E-02    0.316E-01
RMM:   6    -0.380171986171E+03    0.21058E-03   -0.70899E-04  3945   0.342E-02    0.285E-01
RMM:   7    -0.380171761524E+03    0.22465E-03   -0.48496E-04  3943   0.282E-02    0.190E-01
RMM:   8    -0.380171684275E+03    0.77249E-04   -0.27845E-04  3941   0.216E-02    0.125E-01
RMM:   9    -0.380171609270E+03    0.75005E-04   -0.12396E-04  3946   0.149E-02    0.666E-02
RMM:  10    -0.380171581327E+03    0.27943E-04   -0.30622E-05  3930   0.723E-03    0.241E-02
RMM:  11    -0.380171578561E+03    0.27656E-05   -0.67082E-06  3573   0.332E-03    0.132E-02
RMM:  12    -0.380171578726E+03   -0.16433E-06   -0.40772E-06  2825   0.273E-03
  25 F= -.41525030E+03 E0= -.41490743E+03  d E =0.536012E-02
       N       E                     dE             d eps       ncg     rms          rms(c)
DAV:   1    -0.380173429050E+03   -0.18505E-02   -0.61005E-01  3920   0.129E+00    0.190E-01
RMM:   2    -0.380175817664E+03   -0.23886E-02   -0.13298E-02  3948   0.165E-01    0.425E-01
RMM:   3    -0.380176485118E+03   -0.66745E-03   -0.15086E-03  3953   0.476E-02    0.542E-01
RMM:   4    -0.380174457994E+03    0.20271E-02   -0.54561E-04  3956   0.293E-02    0.192E-01
RMM:   5    -0.380174330216E+03    0.12778E-03   -0.25048E-04  3942   0.199E-02    0.144E-01
RMM:   6    -0.380174308322E+03    0.21895E-04   -0.14976E-04  3944   0.157E-02    0.136E-01
RMM:   7    -0.380174258061E+03    0.50261E-04   -0.11268E-04  3942   0.137E-02    0.887E-02
RMM:   8    -0.380174241335E+03    0.16725E-04   -0.61481E-05  3938   0.101E-02    0.586E-02
RMM:   9    -0.380174226707E+03    0.14629E-04   -0.26154E-05  3920   0.688E-03    0.341E-02
RMM:  10    -0.380174219185E+03    0.75220E-05   -0.71982E-06  3764   0.352E-03    0.118E-02
RMM:  11    -0.380174218425E+03    0.75986E-06   -0.11989E-06  2074   0.151E-03
  26 F= -.41525300E+03 E0= -.41491010E+03  d E =-.270297E-02
       N       E                     dE             d eps       ncg     rms          rms(c)
DAV:   1    -0.380162663484E+03    0.11556E-01   -0.38656E+00  3920   0.327E+00    0.474E-01
RMM:   2    -0.380177695510E+03   -0.15032E-01   -0.81543E-02  3948   0.409E-01    0.108E+00
RMM:   3    -0.380183467377E+03   -0.57719E-02   -0.96251E-03  3951   0.119E-01    0.142E+00
RMM:   4    -0.380169308546E+03    0.14159E-01   -0.36407E-03  3955   0.764E-02    0.474E-01
RMM:   5    -0.380168480565E+03    0.82798E-03   -0.15502E-03  3943   0.496E-02    0.344E-01
RMM:   6    -0.380168392417E+03    0.88148E-04   -0.96835E-04  3944   0.400E-02    0.352E-01
RMM:   7    -0.380168019426E+03    0.37299E-03   -0.63801E-04  3945   0.324E-02    0.222E-01
RMM:   8    -0.380167902255E+03    0.11717E-03   -0.36706E-04  3943   0.246E-02    0.142E-01
RMM:   9    -0.380167809023E+03    0.93232E-04   -0.15652E-04  3946   0.168E-02    0.788E-02
RMM:  10    -0.380167770895E+03    0.38129E-04   -0.41239E-05  3939   0.840E-03    0.292E-02
RMM:  11    -0.380167766989E+03    0.39057E-05   -0.91673E-06  3869   0.386E-03    0.146E-02
RMM:  12    -0.380167768291E+03   -0.13020E-05   -0.52912E-06  3291   0.306E-03    0.150E-02
RMM:  13    -0.380167767498E+03    0.79312E-06   -0.20665E-06  2186   0.208E-03
  27 F= -.41524633E+03 E0= -.41490349E+03  d E =0.666591E-02
       N       E                     dE             d eps       ncg     rms          rms(c)
DAV:   1    -0.380165948724E+03    0.18196E-02   -0.29083E-01  3920   0.919E-01    0.122E-01
RMM:   2    -0.380166954394E+03   -0.10057E-02   -0.61010E-03  3949   0.110E-01    0.261E-01
RMM:   3    -0.380167600159E+03   -0.64577E-03   -0.63839E-04  3957   0.304E-02    0.392E-01
RMM:   4    -0.380166477580E+03    0.11226E-02   -0.27498E-04  3946   0.206E-02    0.130E-01
RMM:   5    -0.380166416480E+03    0.61100E-04   -0.97884E-05  3940   0.126E-02    0.863E-02
RMM:   6    -0.380166410101E+03    0.63785E-05   -0.63567E-05  3936   0.102E-02    0.848E-02
RMM:   7    -0.380166391274E+03    0.18828E-04   -0.37869E-05  3927   0.793E-03    0.520E-02
RMM:   8    -0.380166388215E+03    0.30588E-05   -0.23035E-05  3920   0.623E-03    0.365E-02
RMM:   9    -0.380166382700E+03    0.55143E-05   -0.10389E-05  3900   0.437E-03    0.189E-02
RMM:  10    -0.380166380927E+03    0.17738E-05   -0.22012E-06  2225   0.207E-03    0.741E-03
RMM:  11    -0.380166380948E+03   -0.21289E-07   -0.65837E-07  2056   0.113E-03
  28 F= -.41524481E+03 E0= -.41490194E+03  d E =0.152057E-02
       N       E                     dE             d eps       ncg     rms          rms(c)
DAV:   1    -0.380167365960E+03   -0.98503E-03   -0.28583E+00  3920   0.286E+00    0.391E-01
RMM:   2    -0.380178479914E+03   -0.11114E-01   -0.61796E-02  3947   0.350E-01    0.892E-01
RMM:   3    -0.380184280274E+03   -0.58004E-02   -0.67340E-03  3953   0.984E-02    0.126E+00
RMM:   4    -0.380172276134E+03    0.12004E-01   -0.27876E-03  3949   0.656E-02    0.372E-01
RMM:   5    -0.380171744639E+03    0.53150E-03   -0.98826E-04  3945   0.400E-02    0.260E-01
RMM:   6    -0.380171695937E+03    0.48702E-04   -0.61599E-04  3943   0.319E-02    0.264E-01
RMM:   7    -0.380171517661E+03    0.17828E-03   -0.38866E-04  3944   0.254E-02    0.174E-01
RMM:   8    -0.380171462438E+03    0.55223E-04   -0.23787E-04  3941   0.200E-02    0.118E-01
RMM:   9    -0.380171401041E+03    0.61397E-04   -0.10861E-04  3947   0.141E-02    0.673E-02
RMM:  10    -0.380171371881E+03    0.29159E-04   -0.28471E-05  3929   0.694E-03    0.230E-02
RMM:  11    -0.380171368694E+03    0.31877E-05   -0.52738E-06  3241   0.297E-03    0.113E-02
RMM:  12    -0.380171368865E+03   -0.17110E-06   -0.29314E-06  2341   0.237E-03
  29 F= -.41525006E+03 E0= -.41490723E+03  d E =-.525206E-02
       N       E                     dE             d eps       ncg     rms          rms(c)
DAV:   1    -0.380171888526E+03   -0.51983E-03   -0.41732E+00  3920   0.344E+00    0.489E-01
RMM:   2    -0.380188609025E+03   -0.16720E-01   -0.92038E-02  3946   0.426E-01    0.110E+00
RMM:   3    -0.380197212917E+03   -0.86039E-02   -0.10377E-02  3951   0.122E-01    0.156E+00
RMM:   4    -0.380178895947E+03    0.18317E-01   -0.41742E-03  3951   0.802E-02    0.452E-01
RMM:   5    -0.380178167545E+03    0.72840E-03   -0.15504E-03  3943   0.500E-02    0.332E-01
RMM:   6    -0.380178104572E+03    0.62972E-04   -0.96513E-04  3942   0.398E-02    0.336E-01
RMM:   7    -0.380177804414E+03    0.30016E-03   -0.64674E-04  3943   0.328E-02    0.220E-01
RMM:   8    -0.380177705745E+03    0.98669E-04   -0.37586E-04  3941   0.252E-02    0.147E-01
RMM:   9    -0.380177614740E+03    0.91005E-04   -0.16744E-04  3943   0.175E-02    0.880E-02
RMM:  10    -0.380177564143E+03    0.50597E-04   -0.47177E-05  3940   0.894E-03    0.289E-02
RMM:  11    -0.380177559121E+03    0.50215E-05   -0.84870E-06  3831   0.372E-03    0.140E-02
RMM:  12    -0.380177560780E+03   -0.16581E-05   -0.46980E-06  3087   0.283E-03    0.187E-02
RMM:  13    -0.380177560062E+03    0.71754E-06   -0.22809E-06  2219   0.219E-03
  30 F= -.41525633E+03 E0= -.41491352E+03  d E =-.627063E-02
       N       E                     dE             d eps       ncg     rms          rms(c)
DAV:   1    -0.380172508259E+03    0.50525E-02   -0.13496E+00  3920   0.197E+00    0.265E-01
RMM:   2    -0.380177493404E+03   -0.49851E-02   -0.28198E-02  3947   0.238E-01    0.597E-01
RMM:   3    -0.380180253727E+03   -0.27603E-02   -0.30225E-03  3954   0.659E-02    0.851E-01
RMM:   4    -0.380174903457E+03    0.53503E-02   -0.13563E-03  3945   0.460E-02    0.268E-01
RMM:   5    -0.380174625580E+03    0.27788E-03   -0.48333E-04  3945   0.279E-02    0.185E-01
RMM:   6    -0.380174590373E+03    0.35208E-04   -0.29488E-04  3942   0.221E-02    0.181E-01
RMM:   7    -0.380174502536E+03    0.87837E-04   -0.17655E-04  3943   0.171E-02    0.114E-01
RMM:   8    -0.380174483277E+03    0.19259E-04   -0.10818E-04  3941   0.135E-02    0.784E-02
RMM:   9    -0.380174457715E+03    0.25563E-04   -0.48312E-05  3936   0.942E-03    0.445E-02
RMM:  10    -0.380174445497E+03    0.12218E-04   -0.12579E-05  3911   0.464E-03    0.148E-02
RMM:  11    -0.380174444519E+03    0.97817E-06   -0.23652E-06  2258   0.210E-03
  31 F= -.41525314E+03 E0= -.41491028E+03  d E =0.319191E-02
       N       E                     dE             d eps       ncg     rms          rms(c)
DAV:   1    -0.380159806232E+03    0.14639E-01   -0.18247E+01  3920   0.725E+00    0.101E+00
RMM:   2    -0.380231904700E+03   -0.72098E-01   -0.41534E-01  3943   0.890E-01    0.222E+00
RMM:   3    -0.380273717855E+03   -0.41813E-01   -0.43694E-02  3948   0.250E-01    0.325E+00
RMM:   4    -0.380191793547E+03    0.81924E-01   -0.18391E-02  3952   0.166E-01    0.914E-01
RMM:   5    -0.380188595757E+03    0.31978E-02   -0.66350E-03  3944   0.103E-01    0.682E-01
RMM:   6    -0.380187964452E+03    0.63130E-03   -0.39057E-03  3943   0.800E-02    0.644E-01
RMM:   7    -0.380186879711E+03    0.10847E-02   -0.25712E-03  3944   0.654E-02    0.428E-01
RMM:   8    -0.380186617451E+03    0.26226E-03   -0.15161E-03  3943   0.509E-02    0.309E-01
RMM:   9    -0.380186238159E+03    0.37929E-03   -0.71957E-04  3948   0.366E-02    0.185E-01
RMM:  10    -0.380186011479E+03    0.22668E-03   -0.21322E-04  3943   0.189E-02    0.611E-02
RMM:  11    -0.380185986963E+03    0.24515E-04   -0.36485E-05  3938   0.770E-03    0.304E-02
RMM:  12    -0.380185985730E+03    0.12338E-05   -0.16973E-05  3918   0.533E-03    0.291E-02
RMM:  13    -0.380185984537E+03    0.11924E-05   -0.89982E-06  3885   0.391E-03    0.240E-02
RMM:  14    -0.380185985193E+03   -0.65618E-06   -0.48330E-06  3082   0.286E-03
  32 F= -.41526433E+03 E0= -.41492160E+03  d E =-.111840E-01
       N       E                     dE             d eps       ncg     rms          rms(c)
DAV:   1    -0.380171878605E+03    0.14106E-01   -0.56414E+00  3920   0.402E+00    0.540E-01
RMM:   2    -0.380191064995E+03   -0.19186E-01   -0.11758E-01  3947   0.483E-01    0.113E+00
RMM:   3    -0.380203008130E+03   -0.11943E-01   -0.12089E-02  3954   0.132E-01    0.169E+00
RMM:   4    -0.380182524813E+03    0.20483E-01   -0.54955E-03  3947   0.917E-02    0.576E-01
RMM:   5    -0.380181059234E+03    0.14656E-02   -0.21032E-03  3945   0.582E-02    0.389E-01
RMM:   6    -0.380180804333E+03    0.25490E-03   -0.12334E-03  3943   0.453E-02    0.362E-01
RMM:   7    -0.380180435115E+03    0.36922E-03   -0.71023E-04  3945   0.343E-02    0.226E-01
RMM:   8    -0.380180377349E+03    0.57766E-04   -0.44256E-04  3943   0.274E-02    0.163E-01
RMM:   9    -0.380180260314E+03    0.11704E-03   -0.20088E-04  3944   0.192E-02    0.889E-02
RMM:  10    -0.380180209731E+03    0.50583E-04   -0.53176E-05  3942   0.952E-03    0.311E-02
RMM:  11    -0.380180205146E+03    0.45843E-05   -0.11823E-05  3906   0.438E-03    0.165E-02
RMM:  12    -0.380180204735E+03    0.41130E-06   -0.58063E-06  3491   0.319E-03
  33 F= -.41525873E+03 E0= -.41491589E+03  d E =0.559900E-02
       N       E                     dE             d eps       ncg     rms          rms(c)
DAV:   1    -0.380179836492E+03    0.36865E-03   -0.11009E-01  3920   0.567E-01    0.685E-02
RMM:   2    -0.380180151398E+03   -0.31491E-03   -0.22414E-03  3951   0.672E-02    0.133E-01
RMM:   3    -0.380180380187E+03   -0.22879E-03   -0.18213E-04  3962   0.163E-02    0.210E-01
RMM:   4    -0.380180075299E+03    0.30489E-03   -0.10964E-04  3933   0.125E-02    0.975E-02
RMM:   5    -0.380180025571E+03    0.49729E-04   -0.33798E-05  3924   0.761E-03    0.512E-02
RMM:   6    -0.380180016487E+03    0.90839E-05   -0.16833E-05  3917   0.532E-03    0.298E-02
RMM:   7    -0.380180018751E+03   -0.22645E-05   -0.96198E-06  3887   0.402E-03    0.257E-02
RMM:   8    -0.380180019298E+03   -0.54689E-06   -0.63968E-06  3636   0.350E-03
  34 F= -.41525840E+03 E0= -.41491551E+03  d E =0.331328E-03
       N       E                     dE             d eps       ncg     rms          rms(c)
DAV:   1    -0.380160766842E+03    0.19252E-01   -0.14013E+01  3920   0.639E+00    0.762E-01
RMM:   2    -0.380200291271E+03   -0.39524E-01   -0.28827E-01  3946   0.757E-01    0.140E+00
RMM:   3    -0.380232882841E+03   -0.32592E-01   -0.22988E-02  3953   0.182E-01    0.242E+00
RMM:   4    -0.380190208938E+03    0.42674E-01   -0.12971E-02  3947   0.137E-01    0.944E-01
RMM:   5    -0.380184743638E+03    0.54653E-02   -0.40015E-03  3943   0.816E-02    0.530E-01
RMM:   6    -0.380183829865E+03    0.91377E-03   -0.19882E-03  3943   0.578E-02    0.381E-01
RMM:   7    -0.380183707908E+03    0.12196E-03   -0.11602E-03  3942   0.439E-02    0.291E-01
RMM:   8    -0.380183627719E+03    0.80189E-04   -0.81071E-04  3943   0.382E-02    0.204E-01
RMM:   9    -0.380183394862E+03    0.23286E-03   -0.35004E-04  3944   0.252E-02    0.956E-02
RMM:  10    -0.380183345059E+03    0.49803E-04   -0.75293E-05  3941   0.112E-02    0.456E-02
RMM:  11    -0.380183335224E+03    0.98358E-05   -0.22110E-05  3927   0.603E-03    0.299E-02
RMM:  12    -0.380183328948E+03    0.62758E-05   -0.10331E-05  3911   0.428E-03    0.178E-02
RMM:  13    -0.380183329465E+03   -0.51696E-06   -0.44196E-06  2987   0.279E-03
  35 F= -.41526295E+03 E0= -.41492062E+03  d E =-.455651E-02
       N       E                     dE             d eps       ncg     rms          rms(c)
DAV:   1    -0.380164287858E+03    0.19041E-01   -0.15211E+01  3920   0.667E+00    0.823E-01
RMM:   2    -0.380211059846E+03   -0.46772E-01   -0.32042E-01  3942   0.790E-01    0.161E+00
RMM:   3    -0.380245620300E+03   -0.34560E-01   -0.27153E-02  3952   0.198E-01    0.261E+00
RMM:   4    -0.380195072798E+03    0.50548E-01   -0.14288E-02  3946   0.144E-01    0.942E-01
RMM:   5    -0.380190220841E+03    0.48520E-02   -0.46626E-03  3943   0.874E-02    0.591E-01
RMM:   6    -0.380189046155E+03    0.11747E-02   -0.24222E-03  3943   0.635E-02    0.429E-01
RMM:   7    -0.380188758778E+03    0.28738E-03   -0.13958E-03  3942   0.481E-02    0.309E-01
RMM:   8    -0.380188726563E+03    0.32215E-04   -0.92852E-04  3944   0.405E-02    0.235E-01
RMM:   9    -0.380188446164E+03    0.28040E-03   -0.43528E-04  3944   0.283E-02    0.117E-01
RMM:  10    -0.380188363988E+03    0.82175E-04   -0.10413E-04  3946   0.132E-02    0.477E-02
RMM:  11    -0.380188353297E+03    0.10691E-04   -0.25217E-05  3933   0.642E-03    0.289E-02
RMM:  12    -0.380188348783E+03    0.45143E-05   -0.11122E-05  3907   0.444E-03    0.154E-02
RMM:  13    -0.380188350355E+03   -0.15723E-05   -0.59494E-06  3493   0.322E-03    0.125E-02
RMM:  14    -0.380188353503E+03   -0.31478E-05   -0.27114E-06  2287   0.236E-03    0.964E-03
RMM:  15    -0.380188354400E+03   -0.89776E-06   -0.85405E-07  2080   0.148E-03
  36 F= -.41526837E+03 E0= -.41492663E+03  d E =-.542012E-02
       N       E                     dE             d eps       ncg     rms          rms(c)
DAV:   1    -0.380187998050E+03    0.35545E-03   -0.61258E-01  3920   0.132E+00    0.157E-01
RMM:   2    -0.380189290992E+03   -0.12929E-02   -0.12195E-02  3951   0.159E-01    0.194E-01
RMM:   3    -0.380191393222E+03   -0.21022E-02   -0.98082E-04  3971   0.380E-02    0.531E-01
RMM:   4    -0.380189296314E+03    0.20969E-02   -0.59166E-04  3947   0.280E-02    0.206E-01
RMM:   5    -0.380189056026E+03    0.24029E-03   -0.18938E-04  3944   0.187E-02    0.114E-01
RMM:   6    -0.380189011209E+03    0.44817E-04   -0.76334E-05  3941   0.111E-02    0.687E-02
RMM:   7    -0.380189021047E+03   -0.98376E-05   -0.52081E-05  3939   0.934E-03    0.574E-02
RMM:   8    -0.380189015423E+03    0.56234E-05   -0.32060E-05  3925   0.770E-03    0.407E-02
RMM:   9    -0.380189006640E+03    0.87838E-05   -0.10417E-05  3903   0.427E-03    0.137E-02
RMM:  10    -0.380189006323E+03    0.31635E-06   -0.18818E-06  2183   0.189E-03
  37 F= -.41526829E+03 E0= -.41492637E+03  d E =0.844834E-04
       N       E                     dE             d eps       ncg     rms          rms(c)
DAV:   1    -0.380189659239E+03   -0.65260E-03   -0.51718E-01  3920   0.123E+00    0.162E-01
RMM:   2    -0.380191473964E+03   -0.18147E-02   -0.11029E-02  3944   0.145E-01    0.345E-01
RMM:   3    -0.380192626664E+03   -0.11527E-02   -0.10834E-03  3951   0.392E-02    0.517E-01
RMM:   4    -0.380190627445E+03    0.19992E-02   -0.52455E-04  3940   0.281E-02    0.170E-01
RMM:   5    -0.380190511366E+03    0.11608E-03   -0.18137E-04  3941   0.172E-02    0.116E-01
RMM:   6    -0.380190483604E+03    0.27761E-04   -0.10126E-04  3935   0.130E-02    0.984E-02
RMM:   7    -0.380190460395E+03    0.23209E-04   -0.58817E-05  3934   0.988E-03    0.614E-02
RMM:   8    -0.380190459165E+03    0.12300E-05   -0.36756E-05  3927   0.795E-03    0.462E-02
RMM:   9    -0.380190449722E+03    0.94436E-05   -0.16840E-05  3916   0.560E-03    0.255E-02
RMM:  10    -0.380190445530E+03    0.41911E-05   -0.39334E-06  2800   0.267E-03    0.818E-03
RMM:  11    -0.380190445337E+03    0.19384E-06   -0.91325E-07  2059   0.134E-03
  38 F= -.41526955E+03 E0= -.41492772E+03  d E =-.126225E-02
       N       E                     dE             d eps       ncg     rms          rms(c)
DAV:   1    -0.380192438265E+03   -0.19927E-02   -0.37306E-01  3920   0.105E+00    0.174E-01
RMM:   2    -0.380194369820E+03   -0.19316E-02   -0.95593E-03  3945   0.129E-01    0.397E-01
RMM:   3    -0.380195551277E+03   -0.11815E-02   -0.12974E-03  3947   0.424E-02    0.571E-01
RMM:   4    -0.380193057684E+03    0.24936E-02   -0.52003E-04  3942   0.285E-02    0.147E-01
RMM:   5    -0.380193028851E+03    0.28833E-04   -0.20157E-04  3939   0.179E-02    0.124E-01
RMM:   6    -0.380193025737E+03    0.31139E-05   -0.12338E-04  3945   0.141E-02    0.126E-01
RMM:   7    -0.380192975980E+03    0.49757E-04   -0.80891E-05  3943   0.116E-02    0.759E-02
RMM:   8    -0.380192961809E+03    0.14171E-04   -0.43823E-05  3933   0.854E-03    0.502E-02
RMM:   9    -0.380192952894E+03    0.89148E-05   -0.18712E-05  3911   0.584E-03    0.322E-02
RMM:  10    -0.380192946069E+03    0.68249E-05   -0.57691E-06  3470   0.317E-03    0.966E-03
RMM:  11    -0.380192945559E+03    0.51011E-06   -0.96985E-07  2066   0.137E-03
  39 F= -.41527126E+03 E0= -.41492944E+03  d E =-.171303E-02
       N       E                     dE             d eps       ncg     rms          rms(c)
DAV:   1    -0.380186849989E+03    0.60961E-02   -0.13809E+00  3920   0.202E+00    0.314E-01
RMM:   2    -0.380193331390E+03   -0.64814E-02   -0.32604E-02  3945   0.243E-01    0.724E-01
RMM:   3    -0.380197258026E+03   -0.39266E-02   -0.41979E-03  3945   0.764E-02    0.103E+00
RMM:   4    -0.380189239141E+03    0.80189E-02   -0.17853E-03  3945   0.529E-02    0.281E-01
RMM:   5    -0.380189081591E+03    0.15755E-03   -0.68271E-04  3944   0.330E-02    0.231E-01
RMM:   6    -0.380189045566E+03    0.36024E-04   -0.41419E-04  3943   0.260E-02    0.230E-01
RMM:   7    -0.380188874841E+03    0.17073E-03   -0.25812E-04  3943   0.207E-02    0.134E-01
RMM:   8    -0.380188840088E+03    0.34753E-04   -0.14352E-04  3941   0.154E-02    0.926E-02
RMM:   9    -0.380188805563E+03    0.34525E-04   -0.62515E-05  3944   0.107E-02    0.552E-02
RMM:  10    -0.380188785692E+03    0.19871E-04   -0.18418E-05  3913   0.560E-03    0.175E-02
RMM:  11    -0.380188783817E+03    0.18742E-05   -0.32307E-06  2521   0.242E-03    0.711E-03
RMM:  12    -0.380188784338E+03   -0.52030E-06   -0.14997E-06  2120   0.174E-03
  40 F= -.41526829E+03 E0= -.41492641E+03  d E =0.297530E-02
       N       E                     dE             d eps       ncg     rms          rms(c)
DAV:   1    -0.380177951925E+03    0.10832E-01   -0.36124E+00  3920   0.328E+00    0.479E-01
RMM:   2    -0.380193344163E+03   -0.15392E-01   -0.80641E-02  3945   0.387E-01    0.109E+00
RMM:   3    -0.380202702604E+03   -0.93584E-02   -0.97299E-03  3947   0.116E-01    0.156E+00
RMM:   4    -0.380184428656E+03    0.18274E-01   -0.43205E-03  3945   0.819E-02    0.455E-01
RMM:   5    -0.380183816533E+03    0.61212E-03   -0.15923E-03  3944   0.505E-02    0.348E-01
RMM:   6    -0.380183679725E+03    0.13681E-03   -0.96166E-04  3943   0.398E-02    0.340E-01
RMM:   7    -0.380183314940E+03    0.36478E-03   -0.57071E-04  3943   0.308E-02    0.198E-01
RMM:   8    -0.380183250670E+03    0.64271E-04   -0.33117E-04  3941   0.235E-02    0.139E-01
RMM:   9    -0.380183171693E+03    0.78976E-04   -0.14538E-04  3944   0.163E-02    0.812E-02
RMM:  10    -0.380183129769E+03    0.41924E-04   -0.40829E-05  3936   0.834E-03    0.266E-02
RMM:  11    -0.380183126461E+03    0.33082E-05   -0.86505E-06  3846   0.374E-03    0.123E-02
RMM:  12    -0.380183129261E+03   -0.28004E-05   -0.33482E-06  2536   0.250E-03    0.128E-02
RMM:  13    -0.380183129759E+03   -0.49778E-06   -0.14652E-06  2138   0.185E-03
  41 F= -.41526405E+03 E0= -.41492203E+03  d E =0.424184E-02
       N       E                     dE             d eps       ncg     rms          rms(c)
DAV:   1    -0.380132333197E+03    0.50796E-01   -0.25066E+01  3920   0.864E+00    0.122E+00
RMM:   2    -0.380230626440E+03   -0.98293E-01   -0.53324E-01  3947   0.100E+00    0.269E+00
RMM:   3    -0.380293703241E+03   -0.63077E-01   -0.63069E-02  3950   0.296E-01    0.393E+00
RMM:   4    -0.380179901822E+03    0.11380E+00   -0.28134E-02  3947   0.208E-01    0.124E+00
RMM:   5    -0.380174536465E+03    0.53654E-02   -0.10256E-02  3944   0.128E-01    0.893E-01
RMM:   6    -0.380173498670E+03    0.10378E-02   -0.64087E-03  3943   0.103E-01    0.886E-01
RMM:   7    -0.380170926396E+03    0.25723E-02   -0.35040E-03  3944   0.761E-02    0.514E-01
RMM:   8    -0.380170438212E+03    0.48818E-03   -0.21401E-03  3942   0.596E-02    0.348E-01
RMM:   9    -0.380169897457E+03    0.54075E-03   -0.93301E-04  3947   0.414E-02    0.193E-01
RMM:  10    -0.380169683471E+03    0.21399E-03   -0.26252E-04  3943   0.212E-02    0.819E-02
RMM:  11    -0.380169658010E+03    0.25462E-04   -0.72456E-05  3942   0.108E-02    0.458E-02
RMM:  12    -0.380169656028E+03    0.19823E-05   -0.26033E-05  3924   0.679E-03    0.277E-02
RMM:  13    -0.380169656200E+03   -0.17267E-06   -0.10105E-05  3897   0.421E-03    0.147E-02
RMM:  14    -0.380169666977E+03   -0.10776E-04   -0.51958E-06  3210   0.298E-03    0.223E-02
RMM:  15    -0.380169669276E+03   -0.22998E-05   -0.19012E-06  2222   0.200E-03    0.916E-03
RMM:  16    -0.380169671879E+03   -0.26027E-05   -0.75560E-07  2112   0.126E-03    0.381E-03
RMM:  17    -0.380169675991E+03   -0.41118E-05   -0.34691E-07  2104   0.785E-04    0.468E-03
RMM:  18    -0.380169681926E+03   -0.59346E-05   -0.31161E-07  2072   0.642E-04    0.324E-03
RMM:  19    -0.380169685142E+03   -0.32165E-05   -0.13979E-07  1236   0.460E-04    0.237E-03
RMM:  20    -0.380169691097E+03   -0.59553E-05   -0.35422E-07  2005   0.608E-04    0.192E-03
RMM:  21    -0.380169696845E+03   -0.57471E-05   -0.34538E-07  1523   0.531E-04    0.898E-04
RMM:  22    -0.380169701083E+03   -0.42386E-05   -0.33564E-07  1611   0.531E-04    0.142E-03
RMM:  23    -0.380169703857E+03   -0.27737E-05   -0.24281E-07  1284   0.446E-04    0.114E-03
RMM:  24    -0.380169705629E+03   -0.17725E-05   -0.15872E-07  1017   0.401E-04    0.595E-04
RMM:  25    -0.380169707374E+03   -0.17445E-05   -0.16741E-07  1174   0.425E-04    0.506E-04
RMM:  26    -0.380169708161E+03   -0.78681E-06   -0.92818E-08   901   0.358E-04
  42 F= -.41525318E+03 E0= -.41491074E+03  d E =0.108709E-01
       N       E                     dE             d eps       ncg     rms          rms(c)
DAV:   1    -0.380089293567E+03    0.80414E-01   -0.69778E+01  3920   0.145E+01    0.215E+00
RMM:   2    -0.380441166841E+03   -0.35187E+00   -0.18234E+00  3942   0.176E+00    0.499E+00
RMM:   3    -0.380676143255E+03   -0.23498E+00   -0.20954E-01  3947   0.530E-01    0.746E+00
RMM:   4    -0.380211286750E+03    0.46486E+00   -0.88206E-02  3945   0.354E-01    0.164E+00
RMM:   5    -0.380203838799E+03    0.74480E-02   -0.26444E-02  3943   0.206E-01    0.136E+00
RMM:   6    -0.380202457259E+03    0.13815E-02   -0.15733E-02  3945   0.159E-01    0.134E+00
RMM:   7    -0.380197661199E+03    0.47961E-02   -0.10899E-02  3944   0.135E-01    0.875E-01
RMM:   8    -0.380196557069E+03    0.11041E-02   -0.64186E-03  3943   0.105E-01    0.646E-01
RMM:   9    -0.380195109911E+03    0.14472E-02   -0.31584E-03  3944   0.768E-02    0.420E-01
RMM:  10    -0.380193979890E+03    0.11300E-02   -0.10430E-03  3945   0.417E-02    0.146E-01
RMM:  11    -0.380193839544E+03    0.14035E-03   -0.18633E-04  3945   0.174E-02    0.756E-02
RMM:  12    -0.380193810059E+03    0.29485E-04   -0.53985E-05  3932   0.972E-03    0.435E-02
RMM:  13    -0.380193811305E+03   -0.12458E-05   -0.34918E-05  3927   0.777E-03    0.338E-02
RMM:  14    -0.380193823067E+03   -0.11761E-04   -0.17396E-05  3926   0.542E-03    0.404E-02
RMM:  15    -0.380193819853E+03    0.32136E-05   -0.67459E-06  3722   0.343E-03    0.180E-02
RMM:  16    -0.380193821927E+03   -0.20742E-05   -0.21755E-06  2241   0.204E-03    0.986E-03
RMM:  17    -0.380193827035E+03   -0.51079E-05   -0.81841E-07  2119   0.121E-03    0.923E-03
RMM:  18    -0.380193833846E+03   -0.68109E-05   -0.52361E-07  2132   0.954E-04    0.522E-03
RMM:  19    -0.380193838554E+03   -0.47079E-05   -0.31388E-07  2090   0.700E-04    0.330E-03
RMM:  20    -0.380193847068E+03   -0.85137E-05   -0.34591E-07  1973   0.628E-04    0.259E-03
RMM:  21    -0.380193853349E+03   -0.62818E-05   -0.26172E-07  1543   0.529E-04    0.227E-03
RMM:  22    -0.380193860461E+03   -0.71111E-05   -0.34775E-07  1859   0.560E-04    0.135E-03
RMM:  23    -0.380193867808E+03   -0.73477E-05   -0.43813E-07  1656   0.571E-04    0.966E-04
RMM:  24    -0.380193870671E+03   -0.28629E-05   -0.19766E-07  1149   0.424E-04    0.567E-04
RMM:  25    -0.380193873231E+03   -0.25600E-05   -0.14631E-07  1078   0.395E-04    0.833E-04
RMM:  26    -0.380193875960E+03   -0.27286E-05   -0.16888E-07  1204   0.398E-04    0.105E-03
RMM:  27    -0.380193877212E+03   -0.12524E-05   -0.56135E-08   677   0.323E-04    0.720E-04
RMM:  28    -0.380193878563E+03   -0.13504E-05   -0.53640E-08   689   0.330E-04    0.326E-04
RMM:  29    -0.380193879417E+03   -0.85479E-06   -0.33807E-08   552   0.318E-04
  43 F= -.41527182E+03 E0= -.41493003E+03  d E =-.186435E-01
       N       E                     dE             d eps       ncg     rms          rms(c)
DAV:   1    -0.380030626334E+03    0.16325E+00   -0.86484E+01  3920   0.159E+01    0.224E+00
RMM:   2    -0.380354103530E+03   -0.32348E+00   -0.18289E+00  3947   0.183E+00    0.471E+00
RMM:   3    -0.380582594328E+03   -0.22849E+00   -0.21594E-01  3945   0.544E-01    0.716E+00
RMM:   4    -0.380206827003E+03    0.37577E+00   -0.96028E-02  3946   0.379E-01    0.238E+00
RMM:   5    -0.380186658961E+03    0.20168E-01   -0.36114E-02  3944   0.240E-01    0.173E+00
RMM:   6    -0.380181479239E+03    0.51797E-02   -0.22389E-02  3944   0.193E-01    0.167E+00
RMM:   7    -0.380171822403E+03    0.96568E-02   -0.11608E-02  3944   0.138E-01    0.952E-01
RMM:   8    -0.380170100901E+03    0.17215E-02   -0.71169E-03  3943   0.109E-01    0.630E-01
RMM:   9    -0.380168495771E+03    0.16051E-02   -0.32006E-03  3946   0.765E-02    0.367E-01
RMM:  10    -0.380167873035E+03    0.62274E-03   -0.10938E-03  3943   0.433E-02    0.210E-01
RMM:  11    -0.380167679286E+03    0.19375E-03   -0.32727E-04  3942   0.233E-02    0.114E-01
RMM:  12    -0.380167600690E+03    0.78596E-04   -0.11676E-04  3943   0.144E-02    0.527E-02
RMM:  13    -0.380167604115E+03   -0.34254E-05   -0.40262E-05  3941   0.830E-03    0.406E-02
RMM:  14    -0.380167630048E+03   -0.25933E-04   -0.25110E-05  3922   0.644E-03    0.535E-02
RMM:  15    -0.380167624987E+03    0.50613E-05   -0.10485E-05  3893   0.426E-03    0.158E-02
RMM:  16    -0.380167630383E+03   -0.53967E-05   -0.25899E-06  2384   0.220E-03    0.812E-03
RMM:  17    -0.380167641355E+03   -0.10972E-04   -0.12068E-06  2185   0.145E-03    0.983E-03
RMM:  18    -0.380167650823E+03   -0.94679E-05   -0.71813E-07  2164   0.111E-03    0.528E-03
RMM:  19    -0.380167656716E+03   -0.58935E-05   -0.38246E-07  2106   0.721E-04    0.407E-03
RMM:  20    -0.380167670817E+03   -0.14101E-04   -0.82792E-07  2172   0.874E-04    0.269E-03
RMM:  21    -0.380167678413E+03   -0.75955E-05   -0.48240E-07  1824   0.643E-04    0.180E-03
RMM:  22    -0.380167689935E+03   -0.11523E-04   -0.95625E-07  2215   0.853E-04    0.174E-03
RMM:  23    -0.380167697007E+03   -0.70711E-05   -0.64469E-07  1786   0.681E-04    0.123E-03
RMM:  24    -0.380167700404E+03   -0.33979E-05   -0.33213E-07  1433   0.510E-04    0.867E-04
RMM:  25    -0.380167703533E+03   -0.31286E-05   -0.33232E-07  1595   0.514E-04    0.169E-03
RMM:  26    -0.380167704686E+03   -0.11529E-05   -0.12254E-07   924   0.362E-04    0.187E-03
RMM:  27    -0.380167705966E+03   -0.12803E-05   -0.95249E-08   887   0.369E-04    0.150E-03
RMM:  28    -0.380167706506E+03   -0.53985E-06   -0.39810E-08   634   0.340E-04
  44 F= -.41525151E+03 E0= -.41490893E+03  d E =0.203089E-01
       N       E                     dE             d eps       ncg     rms          rms(c)
DAV:   1    -0.380164237504E+03    0.34685E-02   -0.85735E+00  3920   0.508E+00    0.750E-01
RMM:   2    -0.380205064117E+03   -0.40827E-01   -0.20331E-01  3943   0.607E-01    0.177E+00
RMM:   3    -0.380229463528E+03   -0.24399E-01   -0.24962E-02  3947   0.185E-01    0.254E+00
RMM:   4    -0.380178843261E+03    0.50620E-01   -0.10505E-02  3947   0.127E-01    0.647E-01
RMM:   5    -0.380177633966E+03    0.12093E-02   -0.34416E-03  3944   0.744E-02    0.492E-01
RMM:   6    -0.380177570613E+03    0.63353E-04   -0.21732E-03  3943   0.595E-02    0.515E-01
RMM:   7    -0.380176810990E+03    0.75962E-03   -0.13704E-03  3944   0.478E-02    0.324E-01
RMM:   8    -0.380176582900E+03    0.22809E-03   -0.79897E-04  3942   0.365E-02    0.218E-01
RMM:   9    -0.380176395581E+03    0.18732E-03   -0.36049E-04  3945   0.258E-02    0.134E-01
RMM:  10    -0.380176277628E+03    0.11795E-03   -0.10519E-04  3945   0.133E-02    0.429E-02
RMM:  11    -0.380176265196E+03    0.12432E-04   -0.19125E-05  3926   0.555E-03    0.187E-02
RMM:  12    -0.380176265716E+03   -0.51934E-06   -0.73674E-06  3774   0.352E-03
  45 F= -.41525860E+03 E0= -.41491621E+03  d E =-.709398E-02
       N       E                     dE             d eps       ncg     rms          rms(c)
DAV:   1    -0.380172755105E+03    0.35101E-02   -0.98507E+00  3920   0.544E+00    0.827E-01
RMM:   2    -0.380220490900E+03   -0.47736E-01   -0.23999E-01  3943   0.653E-01    0.192E+00
RMM:   3    -0.380249086638E+03   -0.28596E-01   -0.29687E-02  3948   0.202E-01    0.276E+00
RMM:   4    -0.380189260780E+03    0.59826E-01   -0.12407E-02  3945   0.137E-01    0.691E-01
RMM:   5    -0.380187992581E+03    0.12682E-02   -0.43198E-03  3944   0.832E-02    0.552E-01
RMM:   6    -0.380187877323E+03    0.11526E-03   -0.26209E-03  3944   0.653E-02    0.563E-01
RMM:   7    -0.380186944257E+03    0.93307E-03   -0.17021E-03  3944   0.533E-02    0.349E-01
RMM:   8    -0.380186699739E+03    0.24452E-03   -0.96373E-04  3942   0.402E-02    0.241E-01
RMM:   9    -0.380186483670E+03    0.21607E-03   -0.43254E-04  3946   0.283E-02    0.152E-01
RMM:  10    -0.380186331126E+03    0.15254E-03   -0.13377E-04  3945   0.150E-02    0.476E-02
RMM:  11    -0.380186315744E+03    0.15383E-04   -0.23010E-05  3932   0.611E-03    0.196E-02
RMM:  12    -0.380186319048E+03   -0.33047E-05   -0.87148E-06  3871   0.380E-03    0.192E-02
RMM:  13    -0.380186320406E+03   -0.13576E-05   -0.48962E-06  3165   0.297E-03    0.139E-02
RMM:  14    -0.380186322573E+03   -0.21666E-05   -0.17097E-06  2195   0.185E-03    0.140E-02
RMM:  15    -0.380186324611E+03   -0.20389E-05   -0.88539E-07  2114   0.140E-03    0.601E-03
RMM:  16    -0.380186326204E+03   -0.15921E-05   -0.30971E-07  2073   0.850E-04    0.315E-03
RMM:  17    -0.380186327853E+03   -0.16499E-05   -0.84220E-08  1337   0.459E-04    0.309E-03
RMM:  18    -0.380186331566E+03   -0.37128E-05   -0.15580E-07  1727   0.492E-04    0.230E-03
RMM:  19    -0.380186334113E+03   -0.25468E-05   -0.76287E-08   965   0.392E-04    0.125E-03
RMM:  20    -0.380186336446E+03   -0.23327E-05   -0.94236E-08  1081   0.402E-04    0.117E-03
RMM:  21    -0.380186340070E+03   -0.36243E-05   -0.17361E-07  1326   0.451E-04    0.990E-04
RMM:  22    -0.380186342452E+03   -0.23819E-05   -0.16144E-07  1240   0.395E-04    0.911E-04
RMM:  23    -0.380186344469E+03   -0.20170E-05   -0.10082E-07   895   0.362E-04    0.710E-04
RMM:  24    -0.380186345463E+03   -0.99421E-06   -0.53942E-08   661   0.343E-04
  46 F= -.41526618E+03 E0= -.41492395E+03  d E =-.757895E-02
       N       E                     dE             d eps       ncg     rms          rms(c)
DAV:   1    -0.380086720779E+03    0.99624E-01   -0.52315E+01  3920   0.125E+01    0.183E+00
RMM:   2    -0.380312244891E+03   -0.22552E+00   -0.11238E+00  3947   0.144E+00    0.418E+00
RMM:   3    -0.380444404733E+03   -0.13216E+00   -0.14626E-01  3948   0.449E-01    0.592E+00
RMM:   4    -0.380185231009E+03    0.25917E+00   -0.62064E-02  3947   0.311E-01    0.181E+00
RMM:   5    -0.380175995097E+03    0.92359E-02   -0.23047E-02  3943   0.191E-01    0.138E+00
RMM:   6    -0.380174058168E+03    0.19369E-02   -0.14707E-02  3944   0.156E-01    0.141E+00
RMM:   7    -0.380167210511E+03    0.68477E-02   -0.81154E-03  3947   0.116E-01    0.802E-01
RMM:   8    -0.380165721022E+03    0.14895E-02   -0.48461E-03  3942   0.892E-02    0.517E-01
RMM:   9    -0.380164567871E+03    0.11532E-02   -0.20529E-03  3944   0.612E-02    0.289E-01
RMM:  10    -0.380164123673E+03    0.44420E-03   -0.63310E-04  3943   0.330E-02    0.139E-01
RMM:  11    -0.380164052703E+03    0.70971E-04   -0.18906E-04  3943   0.176E-02    0.772E-02
RMM:  12    -0.380164029316E+03    0.23387E-04   -0.64321E-05  3938   0.107E-02    0.432E-02
RMM:  13    -0.380164026461E+03    0.28548E-05   -0.23668E-05  3924   0.641E-03    0.256E-02
RMM:  14    -0.380164044527E+03   -0.18066E-04   -0.13495E-05  3912   0.473E-03    0.350E-02
RMM:  15    -0.380164044802E+03   -0.27529E-06   -0.47732E-06  3100   0.293E-03
  47 F= -.41524846E+03 E0= -.41490580E+03  d E =0.177280E-01
       N       E                     dE             d eps       ncg     rms          rms(c)
DAV:   1    -0.380149842296E+03    0.14202E-01   -0.20622E+01  3920   0.788E+00    0.120E+00
RMM:   2    -0.380254929755E+03   -0.10509E+00   -0.51171E-01  3943   0.950E-01    0.283E+00
RMM:   3    -0.380321468510E+03   -0.66539E-01   -0.65116E-02  3948   0.297E-01    0.414E+00
RMM:   4    -0.380184219860E+03    0.13725E+00   -0.26533E-02  3947   0.199E-01    0.981E-01
RMM:   5    -0.380181551994E+03    0.26679E-02   -0.82874E-03  3944   0.115E-01    0.761E-01
RMM:   6    -0.380181678819E+03   -0.12683E-03   -0.53232E-03  3944   0.929E-02    0.815E-01
RMM:   7    -0.380179826642E+03    0.18522E-02   -0.35380E-03  3944   0.769E-02    0.527E-01
RMM:   8    -0.380179189557E+03    0.63709E-03   -0.20470E-03  3942   0.585E-02    0.354E-01
RMM:   9    -0.380178714757E+03    0.47480E-03   -0.93189E-04  3945   0.414E-02    0.224E-01
RMM:  10    -0.380178387745E+03    0.32701E-03   -0.28609E-04  3944   0.219E-02    0.724E-02
RMM:  11    -0.380178351295E+03    0.36450E-04   -0.50407E-05  3945   0.901E-03    0.329E-02
RMM:  12    -0.380178348195E+03    0.31006E-05   -0.16560E-05  3922   0.527E-03    0.258E-02
RMM:  13    -0.380178346119E+03    0.20758E-05   -0.10586E-05  3902   0.428E-03    0.192E-02
RMM:  14    -0.380178347999E+03   -0.18803E-05   -0.42368E-06  2844   0.272E-03    0.235E-02
RMM:  15    -0.380178345987E+03    0.20128E-05   -0.19606E-06  2195   0.206E-03    0.912E-03
RMM:  16    -0.380178345891E+03    0.95722E-07   -0.66518E-07  2083   0.123E-03
  48 F= -.41526024E+03 E0= -.41491781E+03  d E =-.117884E-01
       N       E                     dE             d eps       ncg     rms          rms(c)
DAV:   1    -0.380180032209E+03   -0.16862E-02   -0.25967E-01  3920   0.877E-01    0.148E-01
RMM:   2    -0.380181456388E+03   -0.14242E-02   -0.65055E-03  3945   0.108E-01    0.353E-01
RMM:   3    -0.380182069942E+03   -0.61355E-03   -0.94255E-04  3948   0.365E-02    0.471E-01
RMM:   4    -0.380180416928E+03    0.16530E-02   -0.35471E-04  3945   0.238E-02    0.127E-01
RMM:   5    -0.380180382446E+03    0.34482E-04   -0.13591E-04  3934   0.147E-02    0.984E-02
RMM:   6    -0.380180400074E+03   -0.17628E-04   -0.88333E-05  3938   0.120E-02    0.111E-01
RMM:   7    -0.380180362505E+03    0.37569E-04   -0.59723E-05  3939   0.100E-02    0.670E-02
RMM:   8    -0.380180350042E+03    0.12462E-04   -0.31805E-05  3924   0.726E-03    0.415E-02
RMM:   9    -0.380180344659E+03    0.53838E-05   -0.12955E-05  3912   0.483E-03    0.271E-02
RMM:  10    -0.380180340170E+03    0.44884E-05   -0.38903E-06  2789   0.266E-03    0.876E-03
RMM:  11    -0.380180339958E+03    0.21189E-06   -0.82464E-07  2063   0.128E-03
  49 F= -.41526175E+03 E0= -.41491930E+03  d E =-.150217E-02
       N       E                     dE             d eps       ncg     rms          rms(c)
DAV:   1    -0.380170947465E+03    0.93927E-02   -0.27398E+00  3920   0.285E+00    0.470E-01
RMM:   2    -0.380186399619E+03   -0.15452E-01   -0.65269E-02  3945   0.345E-01    0.118E+00
RMM:   3    -0.380193492926E+03   -0.70933E-02   -0.98104E-03  3946   0.117E-01    0.156E+00
RMM:   4    -0.380175193261E+03    0.18300E-01   -0.39413E-03  3949   0.799E-02    0.407E-01
RMM:   5    -0.380174818956E+03    0.37430E-03   -0.14088E-03  3943   0.474E-02    0.320E-01
RMM:   6    -0.380174960119E+03   -0.14116E-03   -0.92831E-04  3943   0.389E-02    0.367E-01
RMM:   7    -0.380174513733E+03    0.44639E-03   -0.59626E-04  3945   0.315E-02    0.213E-01
RMM:   8    -0.380174385810E+03    0.12792E-03   -0.32523E-04  3940   0.231E-02    0.133E-01
RMM:   9    -0.380174316880E+03    0.68930E-04   -0.12998E-04  3944   0.153E-02    0.815E-02
RMM:  10    -0.380174275565E+03    0.41315E-04   -0.39433E-05  3933   0.822E-03    0.284E-02
RMM:  11    -0.380174270924E+03    0.46413E-05   -0.83420E-06  3825   0.369E-03    0.115E-02
RMM:  12    -0.380174272316E+03   -0.13924E-05   -0.33872E-06  2580   0.251E-03    0.128E-02
RMM:  13    -0.380174271386E+03    0.93006E-06   -0.15330E-06  2128   0.189E-03
  50 F= -.41525701E+03 E0= -.41491456E+03  d E =0.474056E-02
       N       E                     dE             d eps       ncg     rms          rms(c)
DAV:   1    -0.380163364910E+03    0.10907E-01   -0.36933E+00  3920   0.332E+00    0.530E-01
RMM:   2    -0.380183533920E+03   -0.20169E-01   -0.85029E-02  3945   0.396E-01    0.134E+00
RMM:   3    -0.380193382090E+03   -0.98482E-02   -0.12702E-02  3946   0.133E-01    0.179E+00
RMM:   4    -0.380169216632E+03    0.24165E-01   -0.51720E-03  3949   0.915E-02    0.471E-01
RMM:   5    -0.380168695101E+03    0.52153E-03   -0.17358E-03  3945   0.527E-02    0.358E-01
RMM:   6    -0.380168867766E+03   -0.17266E-03   -0.12006E-03  3943   0.443E-02    0.418E-01
RMM:   7    -0.380168288430E+03    0.57934E-03   -0.73566E-04  3945   0.350E-02    0.242E-01
RMM:   8    -0.380168119926E+03    0.16850E-03   -0.41530E-04  3942   0.260E-02    0.150E-01
RMM:   9    -0.380168029566E+03    0.90360E-04   -0.16612E-04  3946   0.173E-02    0.883E-02
RMM:  10    -0.380167983491E+03    0.46075E-04   -0.47629E-05  3941   0.903E-03    0.321E-02
RMM:  11    -0.380167978671E+03    0.48203E-05   -0.10903E-05  3906   0.420E-03    0.140E-02
RMM:  12    -0.380167982688E+03   -0.40175E-05   -0.46016E-06  3018   0.286E-03    0.145E-02
RMM:  13    -0.380167982934E+03   -0.24639E-06   -0.19164E-06  2195   0.204E-03
  51 F= -.41525174E+03 E0= -.41490926E+03  d E =0.526426E-02
       N       E                     dE             d eps       ncg     rms          rms(c)
DAV:   1    -0.380170469345E+03   -0.24867E-02   -0.22693E+00  3920   0.260E+00    0.430E-01
RMM:   2    -0.380183594193E+03   -0.13125E-01   -0.55993E-02  3945   0.317E-01    0.107E+00
RMM:   3    -0.380190640875E+03   -0.70467E-02   -0.83933E-03  3951   0.107E-01    0.147E+00
RMM:   4    -0.380173868310E+03    0.16773E-01   -0.33009E-03  3949   0.719E-02    0.358E-01
RMM:   5    -0.380173592514E+03    0.27580E-03   -0.10736E-03  3943   0.415E-02    0.280E-01
RMM:   6    -0.380173735792E+03   -0.14328E-03   -0.74177E-04  3943   0.347E-02    0.324E-01
RMM:   7    -0.380173419129E+03    0.31666E-03   -0.50018E-04  3945   0.289E-02    0.202E-01
RMM:   8    -0.380173296882E+03    0.12225E-03   -0.27424E-04  3942   0.212E-02    0.124E-01
RMM:   9    -0.380173237355E+03    0.59528E-04   -0.11075E-04  3947   0.141E-02    0.778E-02
RMM:  10    -0.380173198585E+03    0.38770E-04   -0.34252E-05  3929   0.764E-03    0.260E-02
RMM:  11    -0.380173194302E+03    0.42828E-05   -0.62773E-06  3504   0.322E-03    0.109E-02
RMM:  12    -0.380173194999E+03   -0.69681E-06   -0.25691E-06  2279   0.220E-03
  52 F= -.41525610E+03 E0= -.41491361E+03  d E =-.435937E-02
       N       E                     dE             d eps       ncg     rms          rms(c)
DAV:   1    -0.380172423513E+03    0.77079E-03   -0.71156E-02  3920   0.464E-01    0.639E-02
RMM:   2    -0.380172731238E+03   -0.30773E-03   -0.15556E-03  3948   0.540E-02    0.157E-01
RMM:   3    -0.380172856046E+03   -0.12481E-03   -0.17290E-04  3947   0.156E-02    0.203E-01
RMM:   4    -0.380172554626E+03    0.30142E-03   -0.79236E-05  3921   0.110E-02    0.704E-02
RMM:   5    -0.380172540890E+03    0.13737E-04   -0.29062E-05  3925   0.688E-03    0.499E-02
RMM:   6    -0.380172535652E+03    0.52376E-05   -0.16832E-05  3915   0.524E-03    0.404E-02
RMM:   7    -0.380172530973E+03    0.46791E-05   -0.10521E-05  3886   0.423E-03    0.239E-02
RMM:   8    -0.380172530870E+03    0.10313E-06   -0.54704E-06  3312   0.310E-03
  53 F= -.41525556E+03 E0= -.41491304E+03  d E =0.542376E-03
       N       E                     dE             d eps       ncg     rms          rms(c)
DAV:   1    -0.380172709975E+03   -0.17900E-03   -0.41125E+00  3920   0.352E+00    0.504E-01
RMM:   2    -0.380192425766E+03   -0.19716E-01   -0.94883E-02  3943   0.416E-01    0.125E+00
RMM:   3    -0.380202073999E+03   -0.96482E-02   -0.11305E-02  3947   0.125E-01    0.170E+00
RMM:   4    -0.380179639147E+03    0.22435E-01   -0.50841E-03  3945   0.883E-02    0.443E-01
RMM:   5    -0.380178964635E+03    0.67451E-03   -0.16068E-03  3944   0.509E-02    0.323E-01
RMM:   6    -0.380178984499E+03   -0.19865E-04   -0.97688E-04  3943   0.399E-02    0.349E-01
RMM:   7    -0.380178602768E+03    0.38173E-03   -0.58810E-04  3944   0.314E-02    0.196E-01
RMM:   8    -0.380178539427E+03    0.63340E-04   -0.35196E-04  3942   0.243E-02    0.135E-01
RMM:   9    -0.380178465990E+03    0.73437E-04   -0.15586E-04  3947   0.171E-02    0.843E-02
RMM:  10    -0.380178420101E+03    0.45889E-04   -0.41275E-05  3936   0.836E-03    0.285E-02
RMM:  11    -0.380178415047E+03    0.50546E-05   -0.82335E-06  3824   0.365E-03    0.124E-02
RMM:  12    -0.380178415775E+03   -0.72861E-06   -0.32025E-06  2475   0.244E-03
  54 F= -.41526015E+03 E0= -.41491780E+03  d E =-.459128E-02
       N       E                     dE             d eps       ncg     rms          rms(c)
DAV:   1    -0.380164214273E+03    0.14201E-01   -0.54517E+00  3920   0.405E+00    0.551E-01
RMM:   2    -0.380187123812E+03   -0.22910E-01   -0.11637E-01  3945   0.468E-01    0.133E+00
RMM:   3    -0.380198538101E+03   -0.11414E-01   -0.13077E-02  3953   0.135E-01    0.180E+00
RMM:   4    -0.380174149107E+03    0.24389E-01   -0.63376E-03  3943   0.995E-02    0.546E-01
RMM:   5    -0.380172967903E+03    0.11812E-02   -0.20572E-03  3943   0.576E-02    0.375E-01
RMM:   6    -0.380172831595E+03    0.13631E-03   -0.12438E-03  3943   0.455E-02    0.376E-01
RMM:   7    -0.380172394241E+03    0.43735E-03   -0.66140E-04  3945   0.332E-02    0.213E-01
RMM:   8    -0.380172346214E+03    0.48026E-04   -0.42197E-04  3942   0.267E-02    0.153E-01
RMM:   9    -0.380172245903E+03    0.10031E-03   -0.18570E-04  3946   0.186E-02    0.874E-02
RMM:  10    -0.380172198700E+03    0.47203E-04   -0.48157E-05  3943   0.906E-03    0.312E-02
RMM:  11    -0.380172193969E+03    0.47314E-05   -0.11851E-05  3917   0.438E-03    0.163E-02
RMM:  12    -0.380172194347E+03   -0.37780E-06   -0.46867E-06  3060   0.291E-03
  55 F= -.41525531E+03 E0= -.41491272E+03  d E =0.484286E-02
       N       E                     dE             d eps       ncg     rms          rms(c)
DAV:   1    -0.380173989998E+03   -0.17960E-02   -0.15297E+00  3920   0.215E+00    0.318E-01
RMM:   2    -0.380181473044E+03   -0.74830E-02   -0.35299E-02  3945   0.254E-01    0.779E-01
RMM:   3    -0.380185411427E+03   -0.39384E-02   -0.44988E-03  3949   0.787E-02    0.107E+00
RMM:   4    -0.380176466730E+03    0.89447E-02   -0.19419E-03  3945   0.549E-02    0.277E-01
RMM:   5    -0.380176263424E+03    0.20331E-03   -0.63654E-04  3944   0.320E-02    0.211E-01
RMM:   6    -0.380176287042E+03   -0.23618E-04   -0.40497E-04  3943   0.257E-02    0.228E-01
RMM:   7    -0.380176130172E+03    0.15687E-03   -0.25125E-04  3943   0.205E-02    0.134E-01
RMM:   8    -0.380176092222E+03    0.37950E-04   -0.14466E-04  3941   0.155E-02    0.894E-02
RMM:   9    -0.380176062205E+03    0.30017E-04   -0.62378E-05  3948   0.107E-02    0.561E-02
RMM:  10    -0.380176041855E+03    0.20349E-04   -0.17896E-05  3913   0.551E-03    0.180E-02
RMM:  11    -0.380176039673E+03    0.21825E-05   -0.30729E-06  2470   0.236E-03    0.788E-03
RMM:  12    -0.380176040031E+03   -0.35814E-06   -0.14895E-06  2120   0.171E-03
  56 F= -.41525838E+03 E0= -.41491586E+03  d E =-.306934E-02
       N       E                     dE             d eps       ncg     rms          rms(c)
DAV:   1    -0.380155590453E+03    0.20449E-01   -0.85286E+00  3920   0.507E+00    0.725E-01
RMM:   2    -0.380193820284E+03   -0.38230E-01   -0.18380E-01  3946   0.586E-01    0.176E+00
RMM:   3    -0.380213321575E+03   -0.19501E-01   -0.23018E-02  3949   0.179E-01    0.239E+00
RMM:   4    -0.380170479317E+03    0.42842E-01   -0.10298E-02  3946   0.128E-01    0.697E-01
RMM:   5    -0.380168867026E+03    0.16123E-02   -0.34821E-03  3944   0.747E-02    0.498E-01
RMM:   6    -0.380168842557E+03    0.24469E-04   -0.22346E-03  3944   0.607E-02    0.537E-01
RMM:   7    -0.380167894814E+03    0.94774E-03   -0.12578E-03  3945   0.458E-02    0.304E-01
RMM:   8    -0.380167706977E+03    0.18784E-03   -0.75323E-04  3942   0.353E-02    0.203E-01
RMM:   9    -0.380167532929E+03    0.17405E-03   -0.31910E-04  3947   0.243E-02    0.117E-01
RMM:  10    -0.380167451217E+03    0.81712E-04   -0.87422E-05  3945   0.122E-02    0.432E-02
