<?xml version="1.0" encoding="ISO-8859-1"?>
<modeling>
 <generator>
  <i name="program" type="string">vasp </i>
  <i name="version" type="string">5.4.4.18Apr17-6-g9f103f2a35  </i>
  <i name="subversion" type="string">(build Nov 06 2023 00:46:14) complex            parallel </i>
  <i name="platform" type="string">LinuxIFC </i>
  <i name="date" type="string">2025 07 22 </i>
  <i name="time" type="string">23:53:25 </i>
 </generator>
 <incar>
  <i type="string" name="SYSTEM">Pt111 O2 adsorption system</i>
  <i type="int" name="ISTART">     0</i>
  <i type="string" name="PREC">normal</i>
  <i type="string" name="ALGO"> Fast</i>
  <i type="int" name="ICHARG">     1</i>
  <i type="int" name="IBRION">     5</i>
  <i type="int" name="NFREE">     2</i>
  <i name="EDIFF">      0.00000100</i>
  <i name="EDIFFG">     -0.02000000</i>
  <i type="int" name="NSW">     1</i>
  <i type="int" name="ISYM">     0</i>
  <i name="ENCUT">    450.00000000</i>
  <i name="POTIM">      0.01500000</i>
  <i type="string" name="LREAL"> Auto</i>
  <i type="int" name="ISMEAR">     0</i>
  <i name="SIGMA">      0.10000000</i>
  <i type="int" name="NWRITE">     3</i>
  <i type="logical" name="LWAVE"> F  </i>
  <i type="logical" name="LCHARG"> F  </i>
  <v type="int" name="KPOINT_BSE">    -1     0     0     0</v>
  <i type="string" name="GGA"> PE</i>
  <i type="logical" name="LDIPOL"> T  </i>
  <i type="int" name="IDIPOL">     3</i>
 </incar>
 <structure name="primitive_cell" >
  <crystal>
   <varray name="basis" >
    <v>       9.71779202       0.00000000       0.00000000 </v>
    <v>       0.00000000      11.22113968       0.00000000 </v>
    <v>       0.00000000       0.00000000      25.00000000 </v>
   </varray>
   <i name="volume">   2726.11754094 </i>
   <varray name="rec_basis" >
    <v>       0.10290403       0.00000000       0.00000000 </v>
    <v>       0.00000000       0.08911751       0.00000000 </v>
    <v>       0.00000000       0.00000000       0.04000000 </v>
   </varray>
  </crystal>
  <varray name="positions" >
   <v>       0.00000000       0.00000000       0.00000000 </v>
   <v>      -0.16666666       0.00000000       0.09162022 </v>
   <v>       0.08333334       0.12500000       0.09162022 </v>
   <v>       0.08333334      -0.12500000       0.09162022 </v>
   <v>       0.25000000       0.12500000       0.00000000 </v>
   <v>       0.25000000      -0.12500000       0.00000000 </v>
   <v>      -0.25000000       0.12500000       0.00000000 </v>
   <v>      -0.25000000      -0.12500000       0.00000000 </v>
   <v>       0.00000000       0.25000000       0.00000000 </v>
   <v>       0.00000000      -0.25000000       0.00000000 </v>
   <v>      -0.16666666       0.25000000       0.09162022 </v>
   <v>      -0.16666666      -0.25000000       0.09162022 </v>
   <v>       0.33333334       0.00000000       0.09162022 </v>
   <v>       0.16666306      -0.00030470       0.17926229 </v>
   <v>      -0.08238667       0.12552351       0.17953530 </v>
   <v>      -0.08290456      -0.12502121       0.17985631 </v>
   <v>      -0.41666666       0.12500000       0.09162022 </v>
   <v>      -0.41666666      -0.12500000       0.09162022 </v>
   <v>       0.08333334       0.37500000       0.09162022 </v>
   <v>       0.08333334      -0.37500000       0.09162022 </v>
   <v>       0.33333334       0.25000000       0.09162022 </v>
   <v>       0.33333334      -0.25000000       0.09162022 </v>
   <v>      -0.50000000       0.00000000       0.00000000 </v>
   <v>       0.25000000       0.37500000       0.00000000 </v>
   <v>       0.25000000      -0.37500000       0.00000000 </v>
   <v>      -0.25000000       0.37500000       0.00000000 </v>
   <v>      -0.25000000      -0.37500000       0.00000000 </v>
   <v>       0.16667806      -0.24977696       0.17926714 </v>
   <v>      -0.33268487      -0.00071974       0.17991469 </v>
   <v>       0.16874691       0.25133097       0.18062078 </v>
   <v>      -0.50000000       0.25000000       0.00000000 </v>
   <v>      -0.50000000      -0.25000000       0.00000000 </v>
   <v>       0.00000000      -0.50000000       0.00000000 </v>
   <v>      -0.08318941       0.37498848       0.17941410 </v>
   <v>       0.41613179      -0.12504858       0.17971895 </v>
   <v>      -0.33265067      -0.24932530       0.17996470 </v>
   <v>      -0.08246534      -0.37557155       0.17954153 </v>
   <v>      -0.33560466       0.24884442       0.18152519 </v>
   <v>       0.41871335       0.12531444       0.18118479 </v>
   <v>      -0.41666666       0.37500000       0.09162022 </v>
   <v>      -0.41666666      -0.37500000       0.09162022 </v>
   <v>      -0.16666666      -0.50000000       0.09162022 </v>
   <v>      -0.00065196      -0.00081825       0.27075614 </v>
   <v>       0.33333334      -0.50000000       0.09162022 </v>
   <v>       0.24632727       0.11988143       0.26919287 </v>
   <v>      -0.24530011       0.12242825       0.27032212 </v>
   <v>       0.00001606       0.24870323       0.27056249 </v>
   <v>      -0.00061822      -0.24912012       0.27073340 </v>
   <v>       0.24899397      -0.12502278       0.27085722 </v>
   <v>      -0.24794499      -0.12500270       0.27101025 </v>
   <v>       0.16876113       0.49876728       0.18065508 </v>
   <v>       0.41875797      -0.37529853       0.18117739 </v>
   <v>       0.41867047       0.37498540       0.18178964 </v>
   <v>      -0.50000000      -0.50000000       0.00000000 </v>
   <v>      -0.33554763      -0.49880621       0.18154312 </v>
   <v>       0.24639817      -0.36985208       0.26925993 </v>
   <v>      -0.24325836       0.37503045       0.26960022 </v>
   <v>      -0.24535838      -0.37242119       0.27044538 </v>
   <v>      -0.49871777      -0.00410199       0.27064756 </v>
   <v>       0.24456164       0.37503789       0.27201795 </v>
   <v>      -0.49863053      -0.24602085       0.27071421 </v>
   <v>      -0.00004644      -0.49850546       0.27057418 </v>
   <v>      -0.49133763       0.24545644       0.27326873 </v>
   <v>       0.42722742       0.29270426       0.33879487 </v>
   <v>      -0.49153620      -0.49565280       0.27316996 </v>
   <v>       0.42719679       0.45725518       0.33875157 </v>
  </varray>
 </structure>
 <varray name="primitive_index" >
  <v type="int" >        1 </v>
  <v type="int" >       34 </v>
  <v type="int" >        5 </v>
  <v type="int" >       29 </v>
  <v type="int" >        4 </v>
  <v type="int" >       28 </v>
  <v type="int" >       36 </v>
  <v type="int" >       60 </v>
  <v type="int" >        9 </v>
  <v type="int" >       25 </v>
  <v type="int" >       42 </v>
  <v type="int" >       58 </v>
  <v type="int" >        2 </v>
  <v type="int" >        3 </v>
  <v type="int" >       38 </v>
  <v type="int" >       62 </v>
  <v type="int" >       37 </v>
  <v type="int" >       61 </v>
  <v type="int" >       13 </v>
  <v type="int" >       21 </v>
  <v type="int" >       10 </v>
  <v type="int" >       26 </v>
  <v type="int" >       33 </v>
  <v type="int" >       12 </v>
  <v type="int" >       20 </v>
  <v type="int" >       44 </v>
  <v type="int" >       52 </v>
  <v type="int" >       27 </v>
  <v type="int" >       35 </v>
  <v type="int" >       11 </v>
  <v type="int" >       41 </v>
  <v type="int" >       57 </v>
  <v type="int" >       17 </v>
  <v type="int" >       46 </v>
  <v type="int" >       30 </v>
  <v type="int" >       59 </v>
  <v type="int" >       54 </v>
  <v type="int" >       43 </v>
  <v type="int" >        6 </v>
  <v type="int" >       45 </v>
  <v type="int" >       53 </v>
  <v type="int" >       50 </v>
  <v type="int" >        7 </v>
  <v type="int" >       18 </v>
  <v type="int" >        8 </v>
  <v type="int" >       40 </v>
  <v type="int" >       15 </v>
  <v type="int" >       31 </v>
  <v type="int" >       32 </v>
  <v type="int" >       64 </v>
  <v type="int" >       19 </v>
  <v type="int" >       22 </v>
  <v type="int" >       14 </v>
  <v type="int" >       49 </v>
  <v type="int" >       51 </v>
  <v type="int" >       24 </v>
  <v type="int" >       48 </v>
  <v type="int" >       56 </v>
  <v type="int" >       39 </v>
  <v type="int" >       16 </v>
  <v type="int" >       63 </v>
  <v type="int" >       23 </v>
  <v type="int" >       47 </v>
  <v type="int" >       65 </v>
  <v type="int" >       55 </v>
  <v type="int" >       66 </v>
 </varray>
 <kpoints>
  <generation param="Gamma">
   <v type="int" name="divisions">       3        3        1 </v>
   <v name="usershift">      0.00000000       0.00000000       0.00000000 </v>
   <v name="genvec1">      0.33333333       0.00000000       0.00000000 </v>
   <v name="genvec2">      0.00000000       0.33333333       0.00000000 </v>
   <v name="genvec3">      0.00000000       0.00000000       1.00000000 </v>
   <v name="shift">      0.00000000       0.00000000       0.00000000 </v>
  </generation>
  <varray name="kpointlist" >
   <v>       0.00000000       0.00000000       0.00000000 </v>
   <v>       0.33333333       0.00000000       0.00000000 </v>
   <v>       0.00000000       0.33333333       0.00000000 </v>
   <v>       0.33333333       0.33333333       0.00000000 </v>
   <v>      -0.33333333       0.33333333       0.00000000 </v>
  </varray>
  <varray name="weights" >
   <v>       0.11111111 </v>
   <v>       0.22222222 </v>
   <v>       0.22222222 </v>
   <v>       0.22222222 </v>
   <v>       0.22222222 </v>
  </varray>
 </kpoints>
 <parameters>
  <separator name="general" >
   <i type="string" name="SYSTEM">Pt111 O2 adsorption system</i>
   <i type="logical" name="LCOMPAT"> F  </i>
  </separator>
  <separator name="electronic" >
   <i type="string" name="PREC">normal</i>
   <i name="ENMAX">    450.00000000</i>
   <i name="ENAUG">    605.39200000</i>
   <i name="EDIFF">      0.00000100</i>
   <i type="int" name="IALGO">    68</i>
   <i type="int" name="IWAVPR">    11</i>
   <i type="int" name="NBANDS">   399</i>
   <i name="NELECT">    652.00000000</i>
   <i type="int" name="TURBO">     0</i>
   <i type="int" name="IRESTART">     0</i>
   <i type="int" name="NREBOOT">     0</i>
   <i type="int" name="NMIN">     0</i>
   <i name="EREF">      0.00000000</i>
   <separator name="electronic smearing" >
    <i type="int" name="ISMEAR">     0</i>
    <i name="SIGMA">      0.10000000</i>
    <i name="KSPACING">      0.50000000</i>
    <i type="logical" name="KGAMMA"> T  </i>
   </separator>
   <separator name="electronic projectors" >
    <i type="logical" name="LREAL"> T  </i>
    <v name="ROPT">     -0.00050000     -0.00050000</v>
    <i type="int" name="LMAXPAW">  -100</i>
    <i type="int" name="LMAXMIX">     2</i>
    <i type="logical" name="NLSPLINE"> F  </i>
   </separator>
   <separator name="electronic startup" >
    <i type="int" name="ISTART">     0</i>
    <i type="int" name="ICHARG">     1</i>
    <i type="int" name="INIWAV">     1</i>
   </separator>
   <separator name="electronic spin" >
    <i type="int" name="ISPIN">     1</i>
    <i type="logical" name="LNONCOLLINEAR"> F  </i>
    <v name="MAGMOM">      1.00000000      1.00000000      1.00000000      1.00000000      1.00000000      1.00000000      1.00000000      1.00000000      1.00000000      1.00000000      1.00000000      1.00000000      1.00000000      1.00000000      1.00000000      1.00000000      1.00000000      1.00000000      1.00000000      1.00000000
      1.00000000      1.00000000      1.00000000      1.00000000      1.00000000      1.00000000      1.00000000      1.00000000      1.00000000      1.00000000      1.00000000      1.00000000      1.00000000      1.00000000      1.00000000      1.00000000      1.00000000      1.00000000      1.00000000      1.00000000
      1.00000000      1.00000000      1.00000000      1.00000000      1.00000000      1.00000000      1.00000000      1.00000000      1.00000000      1.00000000      1.00000000      1.00000000      1.00000000      1.00000000      1.00000000      1.00000000      1.00000000      1.00000000      1.00000000      1.00000000
      1.00000000      1.00000000      1.00000000      1.00000000      1.00000000      1.00000000</v>
    <i name="NUPDOWN">     -1.00000000</i>
    <i type="logical" name="LSORBIT"> F  </i>
    <v name="SAXIS">      0.00000000      0.00000000      1.00000000</v>
    <i type="logical" name="LSPIRAL"> F  </i>
    <v name="QSPIRAL">      0.00000000      0.00000000      0.00000000</v>
    <i type="logical" name="LZEROZ"> F  </i>
   </separator>
   <separator name="electronic exchange-correlation" >
    <i type="logical" name="LASPH"> F  </i>
    <i type="logical" name="LMETAGGA"> F  </i>
   </separator>
   <separator name="electronic convergence" >
    <i type="int" name="NELM">    60</i>
    <i type="int" name="NELMDL">    -5</i>
    <i type="int" name="NELMIN">     2</i>
    <i name="ENINI">    450.00000000</i>
    <separator name="electronic convergence detail" >
     <i type="logical" name="LDIAG"> T  </i>
     <i type="logical" name="LSUBROT"> F  </i>
     <i name="WEIMIN">      0.00100000</i>
     <i name="EBREAK">      0.00000000</i>
     <i name="DEPER">      0.30000000</i>
     <i type="int" name="NRMM">     4</i>
     <i name="TIME">      0.40000000</i>
    </separator>
   </separator>
   <separator name="electronic mixer" >
    <i name="AMIX">      0.40000000</i>
    <i name="BMIX">      1.00000000</i>
    <i name="AMIN">      0.10000000</i>
    <i name="AMIX_MAG">      1.60000000</i>
    <i name="BMIX_MAG">      1.00000000</i>
    <separator name="electronic mixer details" >
     <i type="int" name="IMIX">     4</i>
     <i type="logical" name="MIXFIRST"> F  </i>
     <i type="int" name="MAXMIX">   -45</i>
     <i name="WC">    100.00000000</i>
     <i type="int" name="INIMIX">     1</i>
     <i type="int" name="MIXPRE">     1</i>
     <i type="int" name="MREMOVE">     5</i>
    </separator>
   </separator>
   <separator name="electronic dipolcorrection" >
    <i type="logical" name="LDIPOL"> T  </i>
    <i type="logical" name="LMONO"> F  </i>
    <i type="int" name="IDIPOL">     3</i>
    <i name="EPSILON">      1.00000000</i>
    <v name="DIPOL">   -100.00000000   -100.00000000   -100.00000000</v>
    <i name="EFIELD">      0.00000000</i>
   </separator>
  </separator>
  <separator name="grids" >
   <i type="int" name="NGX">    50</i>
   <i type="int" name="NGY">    60</i>
   <i type="int" name="NGZ">   140</i>
   <i type="int" name="NGXF">   100</i>
   <i type="int" name="NGYF">   120</i>
   <i type="int" name="NGZF">   280</i>
   <i type="logical" name="ADDGRID"> F  </i>
  </separator>
  <separator name="ionic" >
   <i type="int" name="NSW">   829</i>
   <i type="int" name="IBRION">     5</i>
   <i type="int" name="MDALGO">     0</i>
   <i type="int" name="ISIF">     2</i>
   <i name="PSTRESS">      0.00000000</i>
   <i name="EDIFFG">     -0.02000000</i>
   <i type="int" name="NFREE">     2</i>
   <i name="POTIM">      0.01500000</i>
   <i name="SMASS">     -3.00000000</i>
   <i name="SCALEE">      1.00000000</i>
  </separator>
  <separator name="ionic md" >
   <i name="TEBEG">      0.00010000</i>
   <i name="TEEND">      0.00010000</i>
   <i type="int" name="NBLOCK">     1</i>
   <i type="int" name="KBLOCK">   829</i>
   <i type="int" name="NPACO">   256</i>
   <i name="APACO">     16.00000000</i>
  </separator>
  <separator name="symmetry" >
   <i type="int" name="ISYM">     0</i>
   <i name="SYMPREC">      0.00001000</i>
  </separator>
  <separator name="dos" >
   <i type="int" name="LORBIT">     0</i>
   <v name="RWIGS">     -1.00000000     -1.00000000</v>
   <i type="int" name="NEDOS">   301</i>
   <i name="EMIN">     10.00000000</i>
   <i name="EMAX">    -10.00000000</i>
   <i name="EFERMI">      0.00000000</i>
  </separator>
  <separator name="writing" >
   <i type="int" name="NWRITE">     3</i>
   <i type="logical" name="LWAVE"> F  </i>
   <i type="logical" name="LDOWNSAMPLE"> F  </i>
   <i type="logical" name="LCHARG"> F  </i>
   <i type="logical" name="LPARD"> F  </i>
   <i type="logical" name="LVTOT"> F  </i>
   <i type="logical" name="LVHAR"> F  </i>
   <i type="logical" name="LELF"> F  </i>
   <i type="logical" name="LOPTICS"> F  </i>
   <v name="STM">      0.00000000      0.00000000      0.00000000      0.00000000      0.00000000      0.00000000      0.00000000</v>
  </separator>
  <separator name="performance" >
   <i type="int" name="NPAR">    19</i>
   <i type="int" name="NSIM">     4</i>
   <i type="int" name="NBLK">    -1</i>
   <i type="logical" name="LPLANE"> T  </i>
   <i type="logical" name="LSCALAPACK"> T  </i>
   <i type="logical" name="LSCAAWARE"> F  </i>
   <i type="logical" name="LSCALU"> F  </i>
   <i type="logical" name="LASYNC"> F  </i>
   <i type="logical" name="LORBITALREAL"> F  </i>
  </separator>
  <separator name="miscellaneous" >
   <i type="int" name="IDIOT">     3</i>
   <i type="int" name="ISPECIAL">     0</i>
   <i type="logical" name="LMUSIC"> F  </i>
   <v name="POMASS">    195.08000000     16.00000000</v>
   <v name="DARWINR">      0.00000000      0.00000000</v>
   <v name="DARWINV">      1.00000000      1.00000000</v>
   <i type="logical" name="LCORR"> T  </i>
  </separator>
  <i type="logical" name="GGA_COMPAT"> T  </i>
  <i type="logical" name="LBERRY"> F  </i>
  <i type="int" name="ICORELEVEL">     0</i>
  <i type="logical" name="LDAU"> F  </i>
  <i type="int" name="I_CONSTRAINED_M">     0</i>
  <separator name="electronic exchange-correlation" >
   <i type="string" name="GGA">PE</i>
   <i type="int" name="VOSKOWN">     0</i>
   <i type="logical" name="LHFCALC"> F  </i>
   <i type="string" name="PRECFOCK"></i>
   <i type="logical" name="LSYMGRAD"> F  </i>
   <i type="logical" name="LHFONE"> F  </i>
   <i type="logical" name="LRHFCALC"> F  </i>
   <i type="logical" name="LTHOMAS"> F  </i>
   <i type="logical" name="LMODELHF"> F  </i>
   <i name="ENCUT4O">     -1.00000000</i>
   <i type="int" name="EXXOEP">     0</i>
   <i type="int" name="FOURORBIT">     0</i>
   <i name="AEXX">      0.00000000</i>
   <i name="HFALPHA">      0.00000000</i>
   <i name="MCALPHA">      0.00000000</i>
   <i name="ALDAX">      1.00000000</i>
   <i name="AGGAX">      1.00000000</i>
   <i name="ALDAC">      1.00000000</i>
   <i name="AGGAC">      1.00000000</i>
   <i type="int" name="NKREDX">     1</i>
   <i type="int" name="NKREDY">     1</i>
   <i type="int" name="NKREDZ">     1</i>
   <i type="logical" name="SHIFTRED"> F  </i>
   <i type="logical" name="ODDONLY"> F  </i>
   <i type="logical" name="EVENONLY"> F  </i>
   <i type="int" name="LMAXFOCK">     0</i>
   <i type="int" name="NMAXFOCKAE">     0</i>
   <i type="logical" name="LFOCKAEDFT"> F  </i>
   <i name="HFSCREEN">      0.00000000</i>
   <i name="HFSCREENC">      0.00000000</i>
   <i type="int" name="NBANDSGWLOW">     0</i>
  </separator>
  <separator name="vdW DFT" >
   <i type="logical" name="LUSE_VDW"> F  </i>
   <i name="Zab_VDW">     -0.84910000</i>
   <i name="PARAM1">      0.12340000</i>
   <i name="PARAM2">      1.00000000</i>
   <i name="PARAM3">      0.00000000</i>
  </separator>
  <separator name="model GW" >
   <i type="int" name="MODEL_GW">     0</i>
   <i name="MODEL_EPS0">     24.78288674</i>
   <i name="MODEL_ALPHA">      1.00000000</i>
  </separator>
  <separator name="linear response parameters" >
   <i type="logical" name="LEPSILON"> F  </i>
   <i type="logical" name="LRPA"> F  </i>
   <i type="logical" name="LNABLA"> F  </i>
   <i type="logical" name="LVEL"> F  </i>
   <i type="int" name="KINTER">     0</i>
   <i name="CSHIFT">      0.10000000</i>
   <i name="OMEGAMAX">     -1.00000000</i>
   <i name="DEG_THRESHOLD">      0.00200000</i>
   <i name="RTIME">     -0.10000000</i>
   <i name="WPLASMAI">      0.00000000</i>
   <v name="DFIELD">      0.00000000      0.00000000      0.00000000</v>
   <v name="WPLASMA">      0.00000000      0.00000000      0.00000000      0.00000000      0.00000000      0.00000000      0.00000000      0.00000000      0.00000000</v>
  </separator>
  <separator name="orbital magnetization" >
   <i type="logical" name="NUCIND"> F  </i>
   <v name="MAGPOS">      0.00000000      0.00000000      0.00000000</v>
   <i type="logical" name="LNICSALL"> T  </i>
   <i type="logical" name="ORBITALMAG"> F  </i>
   <i type="logical" name="LMAGBLOCH"> F  </i>
   <i type="logical" name="LCHIMAG"> F  </i>
   <i type="logical" name="LGAUGE"> T  </i>
   <i type="int" name="MAGATOM">     0</i>
   <v name="MAGDIPOL">      0.00000000      0.00000000      0.00000000</v>
   <v name="AVECCONST">      0.00000000      0.00000000      0.00000000</v>
  </separator>
  <separator name="response functions" >
   <i type="logical" name="LADDER"> F  </i>
   <i type="logical" name="LRPAFORCE"> F  </i>
   <i type="logical" name="LFXC"> F  </i>
   <i type="logical" name="LHARTREE"> T  </i>
   <i type="int" name="IBSE">     0</i>
   <v type="int" name="KPOINT">    -1     0     0     0</v>
   <i type="logical" name="LTCTE"> F  </i>
   <i type="logical" name="LTETE"> F  </i>
   <i type="logical" name="LTRIPLET"> F  </i>
   <i type="logical" name="LFXCEPS"> F  </i>
   <i type="logical" name="LFXHEG"> F  </i>
   <i type="int" name="NATURALO">     2</i>
   <i type="logical" name="L2ORDER"> F  </i>
   <i type="logical" name="LMP2LT"> F  </i>
   <i type="logical" name="LUSEW"> F  </i>
   <i name="ENCUTGW">     -2.00000000</i>
   <i name="ENCUTGWSOFT">     -2.00000000</i>
   <i name="ENCUTLF">     -1.00000000</i>
   <i type="int" name="LMAXMP2">    -1</i>
   <i name="SCISSOR">      0.00000000</i>
   <i type="int" name="NOMEGA">     0</i>
   <i type="int" name="NOMEGAR">     0</i>
   <i type="int" name="NBANDSGW">    -1</i>
   <i type="int" name="NBANDSO">    -1</i>
   <i type="int" name="NBANDSV">    -1</i>
   <i type="int" name="NELM">     1</i>
   <i type="int" name="NELMHF">     1</i>
   <i type="int" name="DIM">     3</i>
   <i type="int" name="ANTIRES">     0</i>
   <i name="OMEGAMAX">    -30.00000000</i>
   <i name="OMEGAMIN">    -30.00000000</i>
   <i name="OMEGATL">   -200.00000000</i>
   <i type="int" name="OMEGAGRID">   140</i>
   <i name="CSHIFT">     -0.10000000</i>
   <i type="logical" name="SELFENERGY"> F  </i>
   <i type="logical" name="LSPECTRAL"> F  </i>
   <i type="logical" name="LSPECTRALGW"> F  </i>
   <i type="logical" name="LSINGLES"> F  </i>
   <i type="logical" name="LFERMIGW"> F  </i>
   <i type="logical" name="ODDONLYGW"> F  </i>
   <i type="logical" name="EVENONLYGW"> F  </i>
   <i type="int" name="NKREDLFX">     1</i>
   <i type="int" name="NKREDLFY">     1</i>
   <i type="int" name="NKREDLFZ">     1</i>
   <i type="int" name="MAXMEM">  2800</i>
   <i type="int" name="TELESCOPE">     0</i>
   <i type="int" name="TAUPAR">     1</i>
   <i type="int" name="OMEGAPAR">    -1</i>
   <i name="LAMBDA">      1.00000000</i>
  </separator>
  <separator name="External order field" >
   <i name="OFIELD_KAPPA">      0.00000000</i>
   <v name="OFIELD_K">      0.00000000      0.00000000      0.00000000</v>
   <i name="OFIELD_Q6_NEAR">      0.00000000</i>
   <i name="OFIELD_Q6_FAR">      0.00000000</i>
   <i name="OFIELD_A">      0.00000000</i>
  </separator>
 </parameters>
 <atominfo>
  <atoms>      66 </atoms>
  <types>       2 </types>
  <array name="atoms" >
   <dimension dim="1">ion</dimension>
   <field type="string">element</field>
   <field type="int">atomtype</field>
   <set>
    <rc><c>Pt</c><c>   1</c></rc>
    <rc><c>Pt</c><c>   1</c></rc>
    <rc><c>Pt</c><c>   1</c></rc>
    <rc><c>Pt</c><c>   1</c></rc>
    <rc><c>Pt</c><c>   1</c></rc>
    <rc><c>Pt</c><c>   1</c></rc>
    <rc><c>Pt</c><c>   1</c></rc>
    <rc><c>Pt</c><c>   1</c></rc>
    <rc><c>Pt</c><c>   1</c></rc>
    <rc><c>Pt</c><c>   1</c></rc>
    <rc><c>Pt</c><c>   1</c></rc>
    <rc><c>Pt</c><c>   1</c></rc>
    <rc><c>Pt</c><c>   1</c></rc>
    <rc><c>Pt</c><c>   1</c></rc>
    <rc><c>Pt</c><c>   1</c></rc>
    <rc><c>Pt</c><c>   1</c></rc>
    <rc><c>Pt</c><c>   1</c></rc>
    <rc><c>Pt</c><c>   1</c></rc>
    <rc><c>Pt</c><c>   1</c></rc>
    <rc><c>Pt</c><c>   1</c></rc>
    <rc><c>Pt</c><c>   1</c></rc>
    <rc><c>Pt</c><c>   1</c></rc>
    <rc><c>Pt</c><c>   1</c></rc>
    <rc><c>Pt</c><c>   1</c></rc>
    <rc><c>Pt</c><c>   1</c></rc>
    <rc><c>Pt</c><c>   1</c></rc>
    <rc><c>Pt</c><c>   1</c></rc>
    <rc><c>Pt</c><c>   1</c></rc>
    <rc><c>Pt</c><c>   1</c></rc>
    <rc><c>Pt</c><c>   1</c></rc>
    <rc><c>Pt</c><c>   1</c></rc>
    <rc><c>Pt</c><c>   1</c></rc>
    <rc><c>Pt</c><c>   1</c></rc>
    <rc><c>Pt</c><c>   1</c></rc>
    <rc><c>Pt</c><c>   1</c></rc>
    <rc><c>Pt</c><c>   1</c></rc>
    <rc><c>Pt</c><c>   1</c></rc>
    <rc><c>Pt</c><c>   1</c></rc>
    <rc><c>Pt</c><c>   1</c></rc>
    <rc><c>Pt</c><c>   1</c></rc>
    <rc><c>Pt</c><c>   1</c></rc>
    <rc><c>Pt</c><c>   1</c></rc>
    <rc><c>Pt</c><c>   1</c></rc>
    <rc><c>Pt</c><c>   1</c></rc>
    <rc><c>Pt</c><c>   1</c></rc>
    <rc><c>Pt</c><c>   1</c></rc>
    <rc><c>Pt</c><c>   1</c></rc>
    <rc><c>Pt</c><c>   1</c></rc>
    <rc><c>Pt</c><c>   1</c></rc>
    <rc><c>Pt</c><c>   1</c></rc>
    <rc><c>Pt</c><c>   1</c></rc>
    <rc><c>Pt</c><c>   1</c></rc>
    <rc><c>Pt</c><c>   1</c></rc>
    <rc><c>Pt</c><c>   1</c></rc>
    <rc><c>Pt</c><c>   1</c></rc>
    <rc><c>Pt</c><c>   1</c></rc>
    <rc><c>Pt</c><c>   1</c></rc>
    <rc><c>Pt</c><c>   1</c></rc>
    <rc><c>Pt</c><c>   1</c></rc>
    <rc><c>Pt</c><c>   1</c></rc>
    <rc><c>Pt</c><c>   1</c></rc>
    <rc><c>Pt</c><c>   1</c></rc>
    <rc><c>Pt</c><c>   1</c></rc>
    <rc><c>Pt</c><c>   1</c></rc>
    <rc><c>O </c><c>   2</c></rc>
    <rc><c>O </c><c>   2</c></rc>
   </set>
  </array>
  <array name="atomtypes" >
   <dimension dim="1">type</dimension>
   <field type="int">atomspertype</field>
   <field type="string">element</field>
   <field>mass</field>
   <field>valence</field>
   <field type="string">pseudopotential</field>
   <set>
    <rc><c>  64</c><c>Pt</c><c>    195.08000000</c><c>     10.00000000</c><c>  PAW_PBE Pt 04Feb2005                  </c></rc>
    <rc><c>   2</c><c>O </c><c>     16.00000000</c><c>      6.00000000</c><c>  PAW_PBE O 08Apr2002                   </c></rc>
   </set>
  </array>
 </atominfo>
 <structure name="initialpos" >
  <crystal>
   <varray name="basis" >
    <v>       9.71779202       0.00000000       0.00000000 </v>
    <v>       0.00000000      11.22113968       0.00000000 </v>
    <v>       0.00000000       0.00000000      25.00000000 </v>
   </varray>
   <i name="volume">   2726.11754094 </i>
   <varray name="rec_basis" >
    <v>       0.10290403       0.00000000       0.00000000 </v>
    <v>       0.00000000       0.08911751       0.00000000 </v>
    <v>       0.00000000       0.00000000       0.04000000 </v>
   </varray>
  </crystal>
  <varray name="positions" >
   <v>       0.00000000       0.00000000       0.00000000 </v>
   <v>       0.33333333       0.00000000       0.09162022 </v>
   <v>       0.16666306       0.99969530       0.17926229 </v>
   <v>       0.25000000       0.12500000       0.00000000 </v>
   <v>       0.08333333       0.12500000       0.09162022 </v>
   <v>       0.41871335       0.12531444       0.18118479 </v>
   <v>       0.99934804       0.99918175       0.27075614 </v>
   <v>       0.24632727       0.11988143       0.26919287 </v>
   <v>       0.00000000       0.25000000       0.00000000 </v>
   <v>       0.33333333       0.25000000       0.09162022 </v>
   <v>       0.16874691       0.25133097       0.18062078 </v>
   <v>       0.25000000       0.37500000       0.00000000 </v>
   <v>       0.08333333       0.37500000       0.09162022 </v>
   <v>       0.41867047       0.37498540       0.18178964 </v>
   <v>       0.00001606       0.24870323       0.27056249 </v>
   <v>       0.24456164       0.37503789       0.27201795 </v>
   <v>       0.00000000       0.50000000       0.00000000 </v>
   <v>       0.33333333       0.50000000       0.09162022 </v>
   <v>       0.16876113       0.49876728       0.18065508 </v>
   <v>       0.25000000       0.62500000       0.00000000 </v>
   <v>       0.08333333       0.62500000       0.09162022 </v>
   <v>       0.41875797       0.62470147       0.18117739 </v>
   <v>       0.99995356       0.50149454       0.27057418 </v>
   <v>       0.24639817       0.63014792       0.26925993 </v>
   <v>       0.00000000       0.75000000       0.00000000 </v>
   <v>       0.33333333       0.75000000       0.09162022 </v>
   <v>       0.16667806       0.75022304       0.17926714 </v>
   <v>       0.25000000       0.87500000       0.00000000 </v>
   <v>       0.08333333       0.87500000       0.09162022 </v>
   <v>       0.41613179       0.87495142       0.17971895 </v>
   <v>       0.99938178       0.75087988       0.27073340 </v>
   <v>       0.24899397       0.87497722       0.27085722 </v>
   <v>       0.50000000       0.00000000       0.00000000 </v>
   <v>       0.83333333       0.00000000       0.09162022 </v>
   <v>       0.66731513       0.99928026       0.17991469 </v>
   <v>       0.75000000       0.12500000       0.00000000 </v>
   <v>       0.58333333       0.12500000       0.09162022 </v>
   <v>       0.91761333       0.12552351       0.17953530 </v>
   <v>       0.50128223       0.99589801       0.27064756 </v>
   <v>       0.75469989       0.12242825       0.27032212 </v>
   <v>       0.50000000       0.25000000       0.00000000 </v>
   <v>       0.83333333       0.25000000       0.09162022 </v>
   <v>       0.66439534       0.24884442       0.18152519 </v>
   <v>       0.75000000       0.37500000       0.00000000 </v>
   <v>       0.58333333       0.37500000       0.09162022 </v>
   <v>       0.91681059       0.37498848       0.17941410 </v>
   <v>       0.50866237       0.24545644       0.27326873 </v>
   <v>       0.75674164       0.37503045       0.26960022 </v>
   <v>       0.50000000       0.50000000       0.00000000 </v>
   <v>       0.83333333       0.50000000       0.09162022 </v>
   <v>       0.66445237       0.50119379       0.18154312 </v>
   <v>       0.75000000       0.62500000       0.00000000 </v>
   <v>       0.58333333       0.62500000       0.09162022 </v>
   <v>       0.91753466       0.62442845       0.17954153 </v>
   <v>       0.50846380       0.50434720       0.27316996 </v>
   <v>       0.75464162       0.62757881       0.27044538 </v>
   <v>       0.50000000       0.75000000       0.00000000 </v>
   <v>       0.83333333       0.75000000       0.09162022 </v>
   <v>       0.66734933       0.75067470       0.17996470 </v>
   <v>       0.75000000       0.87500000       0.00000000 </v>
   <v>       0.58333333       0.87500000       0.09162022 </v>
   <v>       0.91709544       0.87497879       0.17985631 </v>
   <v>       0.50136947       0.75397915       0.27071421 </v>
   <v>       0.75205501       0.87499730       0.27101025 </v>
   <v>       0.42722742       0.29270426       0.33879487 </v>
   <v>       0.42719679       0.45725518       0.33875157 </v>
  </varray>
  <varray name="selective"  type="logical" >
   <v type="logical" >  F  F  F </v>
   <v type="logical" >  F  F  F </v>
   <v type="logical" >  F  F  F </v>
   <v type="logical" >  F  F  F </v>
   <v type="logical" >  F  F  F </v>
   <v type="logical" >  F  F  F </v>
   <v type="logical" >  F  F  F </v>
   <v type="logical" >  F  F  F </v>
   <v type="logical" >  F  F  F </v>
   <v type="logical" >  F  F  F </v>
   <v type="logical" >  F  F  F </v>
   <v type="logical" >  F  F  F </v>
   <v type="logical" >  F  F  F </v>
   <v type="logical" >  F  F  F </v>
   <v type="logical" >  F  F  F </v>
   <v type="logical" >  F  F  F </v>
   <v type="logical" >  F  F  F </v>
   <v type="logical" >  F  F  F </v>
   <v type="logical" >  F  F  F </v>
   <v type="logical" >  F  F  F </v>
   <v type="logical" >  F  F  F </v>
   <v type="logical" >  F  F  F </v>
   <v type="logical" >  F  F  F </v>
   <v type="logical" >  F  F  F </v>
   <v type="logical" >  F  F  F </v>
   <v type="logical" >  F  F  F </v>
   <v type="logical" >  F  F  F </v>
   <v type="logical" >  F  F  F </v>
   <v type="logical" >  F  F  F </v>
   <v type="logical" >  F  F  F </v>
   <v type="logical" >  F  F  F </v>
   <v type="logical" >  F  F  F </v>
   <v type="logical" >  F  F  F </v>
   <v type="logical" >  F  F  F </v>
   <v type="logical" >  F  F  F </v>
   <v type="logical" >  F  F  F </v>
   <v type="logical" >  F  F  F </v>
   <v type="logical" >  F  F  F </v>
   <v type="logical" >  F  F  F </v>
   <v type="logical" >  F  F  F </v>
   <v type="logical" >  F  F  F </v>
   <v type="logical" >  F  F  F </v>
   <v type="logical" >  F  F  F </v>
   <v type="logical" >  F  F  F </v>
   <v type="logical" >  F  F  F </v>
   <v type="logical" >  F  F  F </v>
   <v type="logical" >  F  F  F </v>
   <v type="logical" >  F  F  F </v>
   <v type="logical" >  F  F  F </v>
   <v type="logical" >  F  F  F </v>
   <v type="logical" >  F  F  F </v>
   <v type="logical" >  F  F  F </v>
   <v type="logical" >  F  F  F </v>
   <v type="logical" >  F  F  F </v>
   <v type="logical" >  F  F  F </v>
   <v type="logical" >  F  F  F </v>
   <v type="logical" >  F  F  F </v>
   <v type="logical" >  F  F  F </v>
   <v type="logical" >  F  F  F </v>
   <v type="logical" >  F  F  F </v>
   <v type="logical" >  F  F  F </v>
   <v type="logical" >  F  F  F </v>
   <v type="logical" >  F  F  F </v>
   <v type="logical" >  F  F  F </v>
   <v type="logical" >  T  T  T </v>
   <v type="logical" >  T  T  T </v>
  </varray>
  <nose>
   <v>      -3.00000000       0.00000000       0.00010000       0.00010000 </v>
  </nose>
 </structure>
 <calculation>
  <scstep>
   <time name="dav">    8.84    8.86</time>
   <time name="total">    8.88    8.91</time>
   <dipole>
    <v name="dipole">      0.00000000       0.00000000      -0.00038775 </v>
    <i name="Tr[quadrupol]"> -12504.43642381 </i>
    <i name="Echarged">      0.00000000 </i>
    <i name="Edipol_quadrupol">      0.00000000 </i>
    <i name="Eion">      0.00000000 </i>
   </dipole>
   <energy>
    <i name="alphaZ">   1466.13049608 </i>
    <i name="ewald"> 248828.67178182 </i>
    <i name="hartreedc">-298783.10991112 </i>
    <i name="XCdc">    273.19674565 </i>
    <i name="pawpsdc">  45245.00522118 </i>
    <i name="pawaedc"> -43438.47517393 </i>
    <i name="eentropy">     -0.15949983 </i>
    <i name="bandstr">   3131.50224427 </i>
    <i name="atom">  47527.87699037 </i>
    <i name="e_fr_energy">   4250.63889450 </i>
    <i name="e_wo_entrp">   4250.79839433 </i>
    <i name="e_0_energy">   4250.71864441 </i>
   </energy>
  </scstep>
  <scstep>
   <time name="dav">   10.35   10.38</time>
   <time name="total">   10.35   10.38</time>
   <dipole>
    <v name="dipole">      0.00000000       0.00000000      -0.00038775 </v>
    <i name="Tr[quadrupol]"> -12504.43642381 </i>
    <i name="Echarged">      0.00000000 </i>
    <i name="Edipol_quadrupol">      0.00000000 </i>
    <i name="Eion">      0.00000000 </i>
   </dipole>
   <energy>
    <i name="e_fr_energy">    -78.38260072 </i>
    <i name="e_wo_entrp">    -78.09824884 </i>
    <i name="e_0_energy">    -78.24042478 </i>
   </energy>
  </scstep>
  <scstep>
   <time name="dav">   10.48   10.49</time>
   <time name="total">   10.48   10.49</time>
   <dipole>
    <v name="dipole">      0.00000000       0.00000000      -0.00038775 </v>
    <i name="Tr[quadrupol]"> -12504.43642381 </i>
    <i name="Echarged">      0.00000000 </i>
    <i name="Edipol_quadrupol">      0.00000000 </i>
    <i name="Eion">      0.00000000 </i>
   </dipole>
   <energy>
    <i name="e_fr_energy">   -396.51006930 </i>
    <i name="e_wo_entrp">   -395.96160408 </i>
    <i name="e_0_energy">   -396.23583669 </i>
   </energy>
  </scstep>
  <scstep>
   <time name="dav">   10.91   10.92</time>
   <time name="total">   10.91   10.93</time>
   <dipole>
    <v name="dipole">      0.00000000       0.00000000      -0.00038775 </v>
    <i name="Tr[quadrupol]"> -12504.43642381 </i>
    <i name="Echarged">      0.00000000 </i>
    <i name="Edipol_quadrupol">      0.00000000 </i>
    <i name="Eion">      0.00000000 </i>
   </dipole>
   <energy>
    <i name="e_fr_energy">   -409.58259522 </i>
    <i name="e_wo_entrp">   -409.02147037 </i>
    <i name="e_0_energy">   -409.30203280 </i>
   </energy>
  </scstep>
  <scstep>
   <time name="dav">   10.78   10.80</time>
   <time name="total">   11.02   11.04</time>
   <dipole>
    <v name="dipole">      0.00000000       0.00000000      -0.00038775 </v>
    <i name="Tr[quadrupol]"> -12504.43642381 </i>
    <i name="Echarged">      0.00000000 </i>
    <i name="Edipol_quadrupol">      0.00000000 </i>
    <i name="Eion">      0.00000000 </i>
   </dipole>
   <energy>
    <i name="e_fr_energy">   -409.92739307 </i>
    <i name="e_wo_entrp">   -409.36603471 </i>
    <i name="e_0_energy">   -409.64671389 </i>
   </energy>
  </scstep>
  <scstep>
   <time name="diag">    1.63    1.63</time>
   <time name="diis">    3.62    3.62</time>
   <time name="orth">    0.67    0.67</time>
   <time name="total">    6.18    6.20</time>
   <dipole>
    <v name="dipole">      0.00000000       0.00000000       0.61475412 </v>
    <i name="Tr[quadrupol]"> -12491.54624574 </i>
    <i name="Echarged">      0.00000000 </i>
    <i name="Edipol_quadrupol">      0.00000000 </i>
    <i name="Eion">      0.00000000 </i>
   </dipole>
   <energy>
    <i name="e_fr_energy">   -414.79954225 </i>
    <i name="e_wo_entrp">   -414.24743016 </i>
    <i name="e_0_energy">   -414.52348621 </i>
   </energy>
  </scstep>
  <scstep>
   <time name="diag">    1.64    1.65</time>
   <time name="diis">    3.67    3.67</time>
   <time name="orth">    0.66    0.66</time>
   <time name="total">    6.25    6.26</time>
   <dipole>
    <v name="dipole">      0.00000000       0.00000000      -3.53995303 </v>
    <i name="Tr[quadrupol]"> -12508.94897007 </i>
    <i name="Echarged">      0.00000000 </i>
    <i name="Edipol_quadrupol">      0.00000000 </i>
    <i name="Eion">      0.00000000 </i>
   </dipole>
   <energy>
    <i name="e_fr_energy">   -515.16428205 </i>
    <i name="e_wo_entrp">   -514.80696632 </i>
    <i name="e_0_energy">   -514.98562419 </i>
   </energy>
  </scstep>
  <scstep>
   <time name="diag">    1.63    1.63</time>
   <time name="diis">    3.62    3.62</time>
   <time name="orth">    0.67    0.67</time>
   <time name="total">    6.18    6.19</time>
   <dipole>
    <v name="dipole">      0.00000000       0.00000000       3.80255381 </v>
    <i name="Tr[quadrupol]"> -12513.65393611 </i>
    <i name="Echarged">      0.00000000 </i>
    <i name="Edipol_quadrupol">      0.00000000 </i>
    <i name="Eion">      0.00000000 </i>
   </dipole>
   <energy>
    <i name="e_fr_energy">   -573.74018919 </i>
    <i name="e_wo_entrp">   -573.36801809 </i>
    <i name="e_0_energy">   -573.55410364 </i>
   </energy>
  </scstep>
  <scstep>
   <time name="diag">    1.64    1.65</time>
   <time name="diis">    3.63    3.64</time>
   <time name="orth">    0.67    0.67</time>
   <time name="total">    6.22    6.23</time>
   <dipole>
    <v name="dipole">      0.00000000       0.00000000      -0.14193919 </v>
    <i name="Tr[quadrupol]"> -12508.32006009 </i>
    <i name="Echarged">      0.00000000 </i>
    <i name="Edipol_quadrupol">      0.00000000 </i>
    <i name="Eion">      0.00000000 </i>
   </dipole>
   <energy>
    <i name="e_fr_energy">   -418.48384796 </i>
    <i name="e_wo_entrp">   -417.95420531 </i>
    <i name="e_0_energy">   -418.21902663 </i>
   </energy>
  </scstep>
  <scstep>
   <time name="diag">    1.63    1.63</time>
   <time name="diis">    3.61    3.61</time>
   <time name="orth">    0.67    0.67</time>
   <time name="total">    6.17    6.19</time>
   <dipole>
    <v name="dipole">      0.00000000       0.00000000      -0.75784543 </v>
    <i name="Tr[quadrupol]"> -12500.36324599 </i>
    <i name="Echarged">      0.00000000 </i>
    <i name="Edipol_quadrupol">      0.00000000 </i>
    <i name="Eion">      0.00000000 </i>
   </dipole>
   <energy>
    <i name="e_fr_energy">   -403.98559128 </i>
    <i name="e_wo_entrp">   -403.48367245 </i>
    <i name="e_0_energy">   -403.73463187 </i>
   </energy>
  </scstep>
  <scstep>
   <time name="diag">    1.63    1.63</time>
   <time name="diis">    3.60    3.60</time>
   <time name="orth">    0.67    0.67</time>
   <time name="total">    6.16    6.17</time>
   <dipole>
    <v name="dipole">      0.00000000       0.00000000       0.22203069 </v>
    <i name="Tr[quadrupol]"> -12500.44708932 </i>
    <i name="Echarged">      0.00000000 </i>
    <i name="Edipol_quadrupol">      0.00000000 </i>
    <i name="Eion">      0.00000000 </i>
   </dipole>
   <energy>
    <i name="e_fr_energy">   -385.96376929 </i>
    <i name="e_wo_entrp">   -385.39774052 </i>
    <i name="e_0_energy">   -385.68075490 </i>
   </energy>
  </scstep>
  <scstep>
   <time name="diag">    1.63    1.63</time>
   <time name="diis">    3.59    3.60</time>
   <time name="orth">    0.67    0.67</time>
   <time name="total">    6.16    6.17</time>
   <dipole>
    <v name="dipole">      0.00000000       0.00000000       0.11698418 </v>
    <i name="Tr[quadrupol]"> -12501.15156636 </i>
    <i name="Echarged">      0.00000000 </i>
    <i name="Edipol_quadrupol">      0.00000000 </i>
    <i name="Eion">      0.00000000 </i>
   </dipole>
   <energy>
    <i name="e_fr_energy">   -381.90520269 </i>
    <i name="e_wo_entrp">   -381.30582737 </i>
    <i name="e_0_energy">   -381.60551503 </i>
   </energy>
  </scstep>
  <scstep>
   <time name="diag">    1.63    1.64</time>
   <time name="diis">    3.60    3.61</time>
   <time name="orth">    0.68    0.68</time>
   <time name="total">    6.19    6.20</time>
   <dipole>
    <v name="dipole">      0.00000000       0.00000000      -0.06089812 </v>
    <i name="Tr[quadrupol]"> -12500.71876264 </i>
    <i name="Echarged">      0.00000000 </i>
    <i name="Edipol_quadrupol">      0.00000000 </i>
    <i name="Eion">      0.00000000 </i>
   </dipole>
   <energy>
    <i name="e_fr_energy">   -381.54333879 </i>
    <i name="e_wo_entrp">   -380.90697255 </i>
    <i name="e_0_energy">   -381.22515567 </i>
   </energy>
  </scstep>
  <scstep>
   <time name="diag">    1.63    1.63</time>
   <time name="diis">    3.59    3.60</time>
   <time name="orth">    0.67    0.67</time>
   <time name="total">    6.17    6.18</time>
   <dipole>
    <v name="dipole">      0.00000000       0.00000000       0.08585682 </v>
    <i name="Tr[quadrupol]"> -12500.98688847 </i>
    <i name="Echarged">      0.00000000 </i>
    <i name="Edipol_quadrupol">      0.00000000 </i>
    <i name="Eion">      0.00000000 </i>
   </dipole>
   <energy>
    <i name="e_fr_energy">   -380.42370354 </i>
    <i name="e_wo_entrp">   -379.75789848 </i>
    <i name="e_0_energy">   -380.09080101 </i>
   </energy>
  </scstep>
  <scstep>
   <time name="diag">    1.63    1.63</time>
   <time name="diis">    3.61    3.61</time>
   <time name="orth">    0.67    0.67</time>
   <time name="total">    6.18    6.19</time>
   <dipole>
    <v name="dipole">      0.00000000       0.00000000       0.13999937 </v>
    <i name="Tr[quadrupol]"> -12501.29448056 </i>
    <i name="Echarged">      0.00000000 </i>
    <i name="Edipol_quadrupol">      0.00000000 </i>
    <i name="Eion">      0.00000000 </i>
   </dipole>
   <energy>
    <i name="e_fr_energy">   -380.47970265 </i>
    <i name="e_wo_entrp">   -379.80644559 </i>
    <i name="e_0_energy">   -380.14307412 </i>
   </energy>
  </scstep>
  <scstep>
   <time name="diag">    1.63    1.64</time>
   <time name="diis">    3.59    3.60</time>
   <time name="orth">    0.67    0.67</time>
   <time name="total">    6.17    6.18</time>
   <dipole>
    <v name="dipole">      0.00000000       0.00000000       0.11702240 </v>
    <i name="Tr[quadrupol]"> -12501.33897439 </i>
    <i name="Echarged">      0.00000000 </i>
    <i name="Edipol_quadrupol">      0.00000000 </i>
    <i name="Eion">      0.00000000 </i>
   </dipole>
   <energy>
    <i name="e_fr_energy">   -380.40196211 </i>
    <i name="e_wo_entrp">   -379.73388976 </i>
    <i name="e_0_energy">   -380.06792594 </i>
   </energy>
  </scstep>
  <scstep>
   <time name="diag">    1.63    1.63</time>
   <time name="diis">    3.60    3.60</time>
   <time name="orth">    0.67    0.67</time>
   <time name="total">    6.17    6.17</time>
   <dipole>
    <v name="dipole">      0.00000000       0.00000000       0.13790906 </v>
    <i name="Tr[quadrupol]"> -12501.47310430 </i>
    <i name="Echarged">      0.00000000 </i>
    <i name="Edipol_quadrupol">      0.00000000 </i>
    <i name="Eion">      0.00000000 </i>
   </dipole>
   <energy>
    <i name="e_fr_energy">   -380.34023944 </i>
    <i name="e_wo_entrp">   -379.65993119 </i>
    <i name="e_0_energy">   -380.00008532 </i>
   </energy>
  </scstep>
  <scstep>
   <time name="diag">    1.63    1.64</time>
   <time name="diis">    3.60    3.61</time>
   <time name="orth">    0.67    0.67</time>
   <time name="total">    6.18    6.18</time>
   <dipole>
    <v name="dipole">      0.00000000       0.00000000       0.10326646 </v>
    <i name="Tr[quadrupol]"> -12501.30908650 </i>
    <i name="Echarged">      0.00000000 </i>
    <i name="Edipol_quadrupol">      0.00000000 </i>
    <i name="Eion">      0.00000000 </i>
   </dipole>
   <energy>
    <i name="e_fr_energy">   -380.21169693 </i>
    <i name="e_wo_entrp">   -379.52963774 </i>
    <i name="e_0_energy">   -379.87066733 </i>
   </energy>
  </scstep>
  <scstep>
   <time name="diag">    1.64    1.64</time>
   <time name="diis">    3.60    3.60</time>
   <time name="orth">    0.67    0.67</time>
   <time name="total">    6.17    6.18</time>
   <dipole>
    <v name="dipole">      0.00000000       0.00000000       0.10772207 </v>
    <i name="Tr[quadrupol]"> -12501.41967293 </i>
    <i name="Echarged">      0.00000000 </i>
    <i name="Edipol_quadrupol">      0.00000000 </i>
    <i name="Eion">      0.00000000 </i>
   </dipole>
   <energy>
    <i name="e_fr_energy">   -380.19137533 </i>
    <i name="e_wo_entrp">   -379.50568200 </i>
    <i name="e_0_energy">   -379.84852866 </i>
   </energy>
  </scstep>
  <scstep>
   <time name="diag">    1.63    1.63</time>
   <time name="diis">    3.57    3.59</time>
   <time name="orth">    0.67    0.67</time>
   <time name="total">    6.15    6.18</time>
   <dipole>
    <v name="dipole">      0.00000000       0.00000000       0.12262193 </v>
    <i name="Tr[quadrupol]"> -12501.61772277 </i>
    <i name="Echarged">      0.00000000 </i>
    <i name="Edipol_quadrupol">      0.00000000 </i>
    <i name="Eion">      0.00000000 </i>
   </dipole>
   <energy>
    <i name="e_fr_energy">   -380.17860434 </i>
    <i name="e_wo_entrp">   -379.49284262 </i>
    <i name="e_0_energy">   -379.83572348 </i>
   </energy>
  </scstep>
  <scstep>
   <time name="diag">    1.63    1.63</time>
   <time name="diis">    3.60    3.61</time>
   <time name="orth">    0.67    0.67</time>
   <time name="total">    6.18    6.19</time>
   <dipole>
    <v name="dipole">      0.00000000       0.00000000       0.11177837 </v>
    <i name="Tr[quadrupol]"> -12501.65128393 </i>
    <i name="Echarged">      0.00000000 </i>
    <i name="Edipol_quadrupol">      0.00000000 </i>
    <i name="Eion">      0.00000000 </i>
   </dipole>
   <energy>
    <i name="e_fr_energy">   -380.17655873 </i>
    <i name="e_wo_entrp">   -379.49108453 </i>
    <i name="e_0_energy">   -379.83382163 </i>
   </energy>
  </scstep>
  <scstep>
   <time name="diag">    1.63    1.63</time>
   <time name="diis">    3.59    3.60</time>
   <time name="orth">    0.67    0.67</time>
   <time name="total">    6.17    6.18</time>
   <dipole>
    <v name="dipole">      0.00000000       0.00000000       0.11784458 </v>
    <i name="Tr[quadrupol]"> -12501.72836797 </i>
    <i name="Echarged">      0.00000000 </i>
    <i name="Edipol_quadrupol">      0.00000000 </i>
    <i name="Eion">      0.00000000 </i>
   </dipole>
   <energy>
    <i name="e_fr_energy">   -380.17423638 </i>
    <i name="e_wo_entrp">   -379.48895454 </i>
    <i name="e_0_energy">   -379.83159546 </i>
   </energy>
  </scstep>
  <scstep>
   <time name="diag">    1.64    1.64</time>
   <time name="diis">    3.58    3.58</time>
   <time name="orth">    0.67    0.67</time>
   <time name="total">    6.16    6.18</time>
   <dipole>
    <v name="dipole">      0.00000000       0.00000000       0.11677941 </v>
    <i name="Tr[quadrupol]"> -12501.75666603 </i>
    <i name="Echarged">      0.00000000 </i>
    <i name="Edipol_quadrupol">      0.00000000 </i>
    <i name="Eion">      0.00000000 </i>
   </dipole>
   <energy>
    <i name="e_fr_energy">   -380.17405685 </i>
    <i name="e_wo_entrp">   -379.48882327 </i>
    <i name="e_0_energy">   -379.83144006 </i>
   </energy>
  </scstep>
  <scstep>
   <time name="diag">    1.63    1.63</time>
   <time name="diis">    3.59    3.59</time>
   <time name="orth">    0.67    0.67</time>
   <time name="total">    6.16    6.17</time>
   <dipole>
    <v name="dipole">      0.00000000       0.00000000       0.11593457 </v>
    <i name="Tr[quadrupol]"> -12501.82133626 </i>
    <i name="Echarged">      0.00000000 </i>
    <i name="Edipol_quadrupol">      0.00000000 </i>
    <i name="Eion">      0.00000000 </i>
   </dipole>
   <energy>
    <i name="e_fr_energy">   -380.17407034 </i>
    <i name="e_wo_entrp">   -379.48898361 </i>
    <i name="e_0_energy">   -379.83152697 </i>
   </energy>
  </scstep>
  <scstep>
   <time name="diag">    1.63    1.63</time>
   <time name="diis">    3.59    3.60</time>
   <time name="orth">    0.67    0.67</time>
   <time name="total">    6.16    6.18</time>
   <dipole>
    <v name="dipole">      0.00000000       0.00000000       0.11871101 </v>
    <i name="Tr[quadrupol]"> -12501.86164768 </i>
    <i name="Echarged">      0.00000000 </i>
    <i name="Edipol_quadrupol">      0.00000000 </i>
    <i name="Eion">      0.00000000 </i>
   </dipole>
   <energy>
    <i name="e_fr_energy">   -380.17367464 </i>
    <i name="e_wo_entrp">   -379.48877105 </i>
    <i name="e_0_energy">   -379.83122284 </i>
   </energy>
  </scstep>
  <scstep>
   <time name="diag">    1.65    1.65</time>
   <time name="diis">    3.59    3.60</time>
   <time name="orth">    0.67    0.67</time>
   <time name="total">    6.17    6.19</time>
   <dipole>
    <v name="dipole">      0.00000000       0.00000000       0.11948926 </v>
    <i name="Tr[quadrupol]"> -12501.88450894 </i>
    <i name="Echarged">      0.00000000 </i>
    <i name="Edipol_quadrupol">      0.00000000 </i>
    <i name="Eion">      0.00000000 </i>
   </dipole>
   <energy>
    <i name="e_fr_energy">   -380.17389212 </i>
    <i name="e_wo_entrp">   -379.48878394 </i>
    <i name="e_0_energy">   -379.83133803 </i>
   </energy>
  </scstep>
  <scstep>
   <time name="diag">    1.63    1.63</time>
   <time name="diis">    3.60    3.60</time>
   <time name="orth">    0.67    0.67</time>
   <time name="total">    6.17    6.18</time>
   <dipole>
    <v name="dipole">      0.00000000       0.00000000       0.12331389 </v>
    <i name="Tr[quadrupol]"> -12501.96333635 </i>
    <i name="Echarged">      0.00000000 </i>
    <i name="Edipol_quadrupol">      0.00000000 </i>
    <i name="Eion">      0.00000000 </i>
   </dipole>
   <energy>
    <i name="e_fr_energy">   -380.17427473 </i>
    <i name="e_wo_entrp">   -379.48926545 </i>
    <i name="e_0_energy">   -379.83177009 </i>
   </energy>
  </scstep>
  <scstep>
   <time name="diag">    1.63    1.63</time>
   <time name="diis">    3.58    3.60</time>
   <time name="orth">    0.67    0.67</time>
   <time name="total">    6.15    6.17</time>
   <dipole>
    <v name="dipole">      0.00000000       0.00000000       0.12560049 </v>
    <i name="Tr[quadrupol]"> -12501.99714115 </i>
    <i name="Echarged">      0.00000000 </i>
    <i name="Edipol_quadrupol">      0.00000000 </i>
    <i name="Eion">      0.00000000 </i>
   </dipole>
   <energy>
    <i name="e_fr_energy">   -380.17458732 </i>
    <i name="e_wo_entrp">   -379.48954136 </i>
    <i name="e_0_energy">   -379.83206434 </i>
   </energy>
  </scstep>
  <scstep>
   <time name="diag">    1.63    1.63</time>
   <time name="diis">    3.57    3.58</time>
   <time name="orth">    0.67    0.67</time>
   <time name="total">    6.14    6.15</time>
   <dipole>
    <v name="dipole">      0.00000000       0.00000000       0.12859388 </v>
    <i name="Tr[quadrupol]"> -12502.05130935 </i>
    <i name="Echarged">      0.00000000 </i>
    <i name="Edipol_quadrupol">      0.00000000 </i>
    <i name="Eion">      0.00000000 </i>
   </dipole>
   <energy>
    <i name="e_fr_energy">   -380.17488678 </i>
    <i name="e_wo_entrp">   -379.48983637 </i>
    <i name="e_0_energy">   -379.83236157 </i>
   </energy>
  </scstep>
  <scstep>
   <time name="diag">    1.63    1.63</time>
   <time name="diis">    3.58    3.59</time>
   <time name="orth">    0.67    0.67</time>
   <time name="total">    6.15    6.17</time>
   <dipole>
    <v name="dipole">      0.00000000       0.00000000       0.13049906 </v>
    <i name="Tr[quadrupol]"> -12502.07749621 </i>
    <i name="Echarged">      0.00000000 </i>
    <i name="Edipol_quadrupol">      0.00000000 </i>
    <i name="Eion">      0.00000000 </i>
   </dipole>
   <energy>
    <i name="e_fr_energy">   -380.17502908 </i>
    <i name="e_wo_entrp">   -379.48997968 </i>
    <i name="e_0_energy">   -379.83250438 </i>
   </energy>
  </scstep>
  <scstep>
   <time name="diag">    1.63    1.63</time>
   <time name="diis">    3.58    3.58</time>
   <time name="orth">    0.67    0.67</time>
   <time name="total">    6.14    6.15</time>
   <dipole>
    <v name="dipole">      0.00000000       0.00000000       0.13528053 </v>
    <i name="Tr[quadrupol]"> -12502.13745891 </i>
    <i name="Echarged">      0.00000000 </i>
    <i name="Edipol_quadrupol">      0.00000000 </i>
    <i name="Eion">      0.00000000 </i>
   </dipole>
   <energy>
    <i name="e_fr_energy">   -380.17534916 </i>
    <i name="e_wo_entrp">   -379.49028843 </i>
    <i name="e_0_energy">   -379.83281880 </i>
   </energy>
  </scstep>
  <scstep>
   <time name="diag">    1.63    1.63</time>
   <time name="diis">    3.40    3.41</time>
   <time name="orth">    0.67    0.67</time>
   <time name="total">    5.97    5.98</time>
   <dipole>
    <v name="dipole">      0.00000000       0.00000000       0.13736816 </v>
    <i name="Tr[quadrupol]"> -12502.16435167 </i>
    <i name="Echarged">      0.00000000 </i>
    <i name="Edipol_quadrupol">      0.00000000 </i>
    <i name="Eion">      0.00000000 </i>
   </dipole>
   <energy>
    <i name="e_fr_energy">   -380.17549026 </i>
    <i name="e_wo_entrp">   -379.49043955 </i>
    <i name="e_0_energy">   -379.83296491 </i>
   </energy>
  </scstep>
  <scstep>
   <time name="diag">    1.63    1.63</time>
   <time name="diis">    2.86    2.86</time>
   <time name="orth">    0.67    0.67</time>
   <time name="total">    5.43    5.44</time>
   <dipole>
    <v name="dipole">      0.00000000       0.00000000       0.13937697 </v>
    <i name="Tr[quadrupol]"> -12502.18644959 </i>
    <i name="Echarged">      0.00000000 </i>
    <i name="Edipol_quadrupol">      0.00000000 </i>
    <i name="Eion">      0.00000000 </i>
   </dipole>
   <energy>
    <i name="e_fr_energy">   -380.17560884 </i>
    <i name="e_wo_entrp">   -379.49056178 </i>
    <i name="e_0_energy">   -379.83308531 </i>
   </energy>
  </scstep>
  <scstep>
   <time name="diag">    1.63    1.63</time>
   <time name="diis">    2.63    2.64</time>
   <time name="orth">    0.67    0.67</time>
   <time name="total">    5.21    5.21</time>
   <dipole>
    <v name="dipole">      0.00000000       0.00000000       0.14121959 </v>
    <i name="Tr[quadrupol]"> -12502.20535865 </i>
    <i name="Echarged">      0.00000000 </i>
    <i name="Edipol_quadrupol">      0.00000000 </i>
    <i name="Eion">      0.00000000 </i>
   </dipole>
   <energy>
    <i name="e_fr_energy">   -380.17570103 </i>
    <i name="e_wo_entrp">   -379.49065741 </i>
    <i name="e_0_energy">   -379.83317922 </i>
   </energy>
  </scstep>
  <scstep>
   <time name="diag">    1.63    1.63</time>
   <time name="diis">    2.89    2.89</time>
   <time name="orth">    0.67    0.67</time>
   <time name="total">    5.46    5.47</time>
   <dipole>
    <v name="dipole">      0.00000000       0.00000000       0.14455429 </v>
    <i name="Tr[quadrupol]"> -12502.23522898 </i>
    <i name="Echarged">      0.00000000 </i>
    <i name="Edipol_quadrupol">      0.00000000 </i>
    <i name="Eion">      0.00000000 </i>
   </dipole>
   <energy>
    <i name="e_fr_energy">   -380.17583868 </i>
    <i name="e_wo_entrp">   -379.49078304 </i>
    <i name="e_0_energy">   -379.83331086 </i>
   </energy>
  </scstep>
  <scstep>
   <time name="diag">    1.62    1.63</time>
   <time name="diis">    2.68    2.68</time>
   <time name="orth">    0.67    0.67</time>
   <time name="total">    5.24    5.26</time>
   <dipole>
    <v name="dipole">      0.00000000       0.00000000       0.14668565 </v>
    <i name="Tr[quadrupol]"> -12502.22892540 </i>
    <i name="Echarged">      0.00000000 </i>
    <i name="Edipol_quadrupol">      0.00000000 </i>
    <i name="Eion">      0.00000000 </i>
   </dipole>
   <energy>
    <i name="e_fr_energy">   -380.17591630 </i>
    <i name="e_wo_entrp">   -379.49087110 </i>
    <i name="e_0_energy">   -379.83339370 </i>
   </energy>
  </scstep>
  <scstep>
   <time name="diag">    1.63    1.63</time>
   <time name="diis">    2.18    2.18</time>
   <time name="orth">    0.67    0.67</time>
   <time name="total">    4.75    4.77</time>
   <dipole>
    <v name="dipole">      0.00000000       0.00000000       0.14747565 </v>
    <i name="Tr[quadrupol]"> -12502.23585871 </i>
    <i name="Echarged">      0.00000000 </i>
    <i name="Edipol_quadrupol">      0.00000000 </i>
    <i name="Eion">      0.00000000 </i>
   </dipole>
   <energy>
    <i name="e_fr_energy">   -380.17593948 </i>
    <i name="e_wo_entrp">   -379.49089976 </i>
    <i name="e_0_energy">   -379.83341962 </i>
   </energy>
  </scstep>
  <scstep>
   <time name="diag">    1.63    1.63</time>
   <time name="diis">    2.18    2.19</time>
   <time name="orth">    0.67    0.67</time>
   <time name="total">    4.75    4.76</time>
   <dipole>
    <v name="dipole">      0.00000000       0.00000000       0.14865513 </v>
    <i name="Tr[quadrupol]"> -12502.24558725 </i>
    <i name="Echarged">      0.00000000 </i>
    <i name="Edipol_quadrupol">      0.00000000 </i>
    <i name="Eion">      0.00000000 </i>
   </dipole>
   <energy>
    <i name="e_fr_energy">   -380.17597087 </i>
    <i name="e_wo_entrp">   -379.49093339 </i>
    <i name="e_0_energy">   -379.83345213 </i>
   </energy>
  </scstep>
  <scstep>
   <time name="diag">    1.63    1.63</time>
   <time name="diis">    2.15    2.15</time>
   <time name="orth">    0.67    0.67</time>
   <time name="total">    4.71    4.72</time>
   <dipole>
    <v name="dipole">      0.00000000       0.00000000       0.14854838 </v>
    <i name="Tr[quadrupol]"> -12501.98168214 </i>
    <i name="Echarged">      0.00000000 </i>
    <i name="Edipol_quadrupol">      0.00000000 </i>
    <i name="Eion">      0.00000000 </i>
   </dipole>
   <energy>
    <i name="e_fr_energy">   -380.17599105 </i>
    <i name="e_wo_entrp">   -379.49096617 </i>
    <i name="e_0_energy">   -379.83347861 </i>
   </energy>
  </scstep>
  <scstep>
   <time name="diag">    1.63    1.64</time>
   <time name="diis">    1.94    1.95</time>
   <time name="orth">    0.67    0.67</time>
   <time name="total">    4.52    4.53</time>
   <dipole>
    <v name="dipole">      0.00000000       0.00000000       0.14897986 </v>
    <i name="Tr[quadrupol]"> -12501.84916461 </i>
    <i name="Echarged">      0.00000000 </i>
    <i name="Edipol_quadrupol">      0.00000000 </i>
    <i name="Eion">      0.00000000 </i>
   </dipole>
   <energy>
    <i name="e_fr_energy">   -380.17599542 </i>
    <i name="e_wo_entrp">   -379.49095978 </i>
    <i name="e_0_energy">   -379.83347760 </i>
   </energy>
  </scstep>
  <scstep>
   <time name="diag">    1.63    1.63</time>
   <time name="diis">    1.89    1.89</time>
   <time name="orth">    0.67    0.67</time>
   <time name="total">    4.46    4.46</time>
   <dipole>
    <v name="dipole">      0.00000000       0.00000000       0.14943325 </v>
    <i name="Tr[quadrupol]"> -12501.79985631 </i>
    <i name="Echarged">      0.00000000 </i>
    <i name="Edipol_quadrupol">      0.00000000 </i>
    <i name="Eion">      0.00000000 </i>
   </dipole>
   <energy>
    <i name="e_fr_energy">   -380.17601148 </i>
    <i name="e_wo_entrp">   -379.49097853 </i>
    <i name="e_0_energy">   -379.83349500 </i>
   </energy>
  </scstep>
  <scstep>
   <time name="diag">    1.63    1.63</time>
   <time name="diis">    1.76    1.77</time>
   <time name="orth">    0.67    0.67</time>
   <time name="total">    4.34    4.34</time>
   <dipole>
    <v name="dipole">      0.00000000       0.00000000       0.14978329 </v>
    <i name="Tr[quadrupol]"> -12501.77531919 </i>
    <i name="Echarged">      0.00000000 </i>
    <i name="Edipol_quadrupol">      0.00000000 </i>
    <i name="Eion">      0.00000000 </i>
   </dipole>
   <energy>
    <i name="e_fr_energy">   -380.17601991 </i>
    <i name="e_wo_entrp">   -379.49098346 </i>
    <i name="e_0_energy">   -379.83350169 </i>
   </energy>
  </scstep>
  <scstep>
   <time name="diag">    1.63    1.63</time>
   <time name="diis">    2.12    2.12</time>
   <time name="orth">    0.67    0.67</time>
   <time name="total">    4.68    4.70</time>
   <dipole>
    <v name="dipole">      0.00000000       0.00000000       0.15122235 </v>
    <i name="Tr[quadrupol]"> -12502.20995450 </i>
    <i name="Echarged">      0.00000000 </i>
    <i name="Edipol_quadrupol">      0.00000000 </i>
    <i name="Eion">      0.00000000 </i>
   </dipole>
   <energy>
    <i name="e_fr_energy">   -380.17602846 </i>
    <i name="e_wo_entrp">   -379.49097802 </i>
    <i name="e_0_energy">   -379.83350324 </i>
   </energy>
  </scstep>
  <scstep>
   <time name="diag">    1.62    1.62</time>
   <time name="diis">    1.97    1.98</time>
   <time name="orth">    0.67    0.67</time>
   <time name="total">    4.53    4.54</time>
   <dipole>
    <v name="dipole">      0.00000000       0.00000000       0.15213236 </v>
    <i name="Tr[quadrupol]"> -12502.42796652 </i>
    <i name="Echarged">      0.00000000 </i>
    <i name="Edipol_quadrupol">      0.00000000 </i>
    <i name="Eion">      0.00000000 </i>
   </dipole>
   <energy>
    <i name="e_fr_energy">   -380.17603157 </i>
    <i name="e_wo_entrp">   -379.49097654 </i>
    <i name="e_0_energy">   -379.83350406 </i>
   </energy>
  </scstep>
  <scstep>
   <time name="diag">    1.63    1.63</time>
   <time name="diis">    1.78    1.78</time>
   <time name="orth">    0.67    0.67</time>
   <time name="total">    4.35    4.36</time>
   <dipole>
    <v name="dipole">      0.00000000       0.00000000       0.15258282 </v>
    <i name="Tr[quadrupol]"> -12502.53684070 </i>
    <i name="Echarged">      0.00000000 </i>
    <i name="Edipol_quadrupol">      0.00000000 </i>
    <i name="Eion">      0.00000000 </i>
   </dipole>
   <energy>
    <i name="e_fr_energy">   -380.17603345 </i>
    <i name="e_wo_entrp">   -379.49097446 </i>
    <i name="e_0_energy">   -379.83350395 </i>
   </energy>
  </scstep>
  <scstep>
   <time name="diag">    1.63    1.63</time>
   <time name="diis">    1.93    1.93</time>
   <time name="orth">    0.67    0.67</time>
   <time name="total">    4.51    4.51</time>
   <dipole>
    <v name="dipole">      0.00000000       0.00000000       0.15288522 </v>
    <i name="Tr[quadrupol]"> -12502.59226944 </i>
    <i name="Echarged">      0.00000000 </i>
    <i name="Edipol_quadrupol">      0.00000000 </i>
    <i name="Eion">      0.00000000 </i>
   </dipole>
   <energy>
    <i name="e_fr_energy">   -380.17603881 </i>
    <i name="e_wo_entrp">   -379.49097401 </i>
    <i name="e_0_energy">   -379.83350641 </i>
   </energy>
  </scstep>
  <scstep>
   <time name="diag">    1.63    1.63</time>
   <time name="diis">    1.57    1.57</time>
   <time name="orth">    0.67    0.67</time>
   <time name="total">    4.15    4.16</time>
   <dipole>
    <v name="dipole">      0.00000000       0.00000000       0.15300582 </v>
    <i name="Tr[quadrupol]"> -12502.61953565 </i>
    <i name="Echarged">      0.00000000 </i>
    <i name="Edipol_quadrupol">      0.00000000 </i>
    <i name="Eion">      0.00000000 </i>
   </dipole>
   <energy>
    <i name="e_fr_energy">   -380.17604020 </i>
    <i name="e_wo_entrp">   -379.49097353 </i>
    <i name="e_0_energy">   -379.83350686 </i>
   </energy>
  </scstep>
  <scstep>
   <time name="diag">    1.62    1.62</time>
   <time name="diis">    1.40    1.40</time>
   <time name="orth">    0.67    0.67</time>
   <time name="total">    3.96    3.96</time>
   <dipole>
    <v name="dipole">      0.00000000       0.00000000       0.15300664 </v>
    <i name="Tr[quadrupol]"> -12502.64668424 </i>
    <i name="Echarged">      0.00000000 </i>
    <i name="Edipol_quadrupol">      0.00000000 </i>
    <i name="Eion">      0.00000000 </i>
   </dipole>
   <energy>
    <i name="e_fr_energy">   -380.17603898 </i>
    <i name="e_wo_entrp">   -379.49097422 </i>
    <i name="e_0_energy">   -379.83350660 </i>
   </energy>
  </scstep>
  <scstep>
   <time name="diag">    1.63    1.63</time>
   <time name="diis">    1.43    1.44</time>
   <time name="orth">    0.67    0.67</time>
   <time name="total">    4.00    4.01</time>
   <dipole>
    <v name="dipole">      0.00000000       0.00000000       0.15279536 </v>
    <i name="Tr[quadrupol]"> -12502.64651544 </i>
    <i name="Echarged">      0.00000000 </i>
    <i name="Edipol_quadrupol">      0.00000000 </i>
    <i name="Eion">      0.00000000 </i>
   </dipole>
   <energy>
    <i name="e_fr_energy">   -380.17603602 </i>
    <i name="e_wo_entrp">   -379.49097729 </i>
    <i name="e_0_energy">   -379.83350666 </i>
   </energy>
  </scstep>
  <scstep>
   <time name="diag">    1.64    1.64</time>
   <time name="diis">    1.90    1.90</time>
   <time name="orth">    0.67    0.67</time>
   <time name="total">    4.48    4.49</time>
   <dipole>
    <v name="dipole">      0.00000000       0.00000000       0.15255909 </v>
    <i name="Tr[quadrupol]"> -12502.64643093 </i>
    <i name="Echarged">      0.00000000 </i>
    <i name="Edipol_quadrupol">      0.00000000 </i>
    <i name="Eion">      0.00000000 </i>
   </dipole>
   <energy>
    <i name="e_fr_energy">   -380.17603450 </i>
    <i name="e_wo_entrp">   -379.49098118 </i>
    <i name="e_0_energy">   -379.83350784 </i>
   </energy>
  </scstep>
  <scstep>
   <time name="diag">    1.63    1.63</time>
   <time name="diis">    1.67    1.68</time>
   <time name="orth">    0.67    0.67</time>
   <time name="total">    4.24    4.26</time>
   <dipole>
    <v name="dipole">      0.00000000       0.00000000       0.15235428 </v>
    <i name="Tr[quadrupol]"> -12502.64700422 </i>
    <i name="Echarged">      0.00000000 </i>
    <i name="Edipol_quadrupol">      0.00000000 </i>
    <i name="Eion">      0.00000000 </i>
   </dipole>
   <energy>
    <i name="e_fr_energy">   -380.17603644 </i>
    <i name="e_wo_entrp">   -379.49098297 </i>
    <i name="e_0_energy">   -379.83350970 </i>
   </energy>
  </scstep>
  <scstep>
   <time name="diag">    1.63    1.63</time>
   <time name="diis">    1.96    1.97</time>
   <time name="orth">    0.67    0.67</time>
   <time name="total">    4.29    4.30</time>
   <dipole>
    <v name="dipole">      0.00000000       0.00000000       0.15200526 </v>
    <i name="Tr[quadrupol]"> -12502.61982537 </i>
    <i name="Echarged">      0.00000000 </i>
    <i name="Edipol_quadrupol">      0.00000000 </i>
    <i name="Eion">      0.00000000 </i>
   </dipole>
   <energy>
    <i name="alphaZ">   1475.48555967 </i>
    <i name="ewald"> 248828.67178182 </i>
    <i name="hartreedc">-298090.46909228 </i>
    <i name="XCdc">    251.35810598 </i>
    <i name="pawpsdc">  57834.05398590 </i>
    <i name="pawaedc"> -56206.24166676 </i>
    <i name="eentropy">     -0.68504636 </i>
    <i name="bandstr">  -2000.22665400 </i>
    <i name="atom">  47527.87699037 </i>
    <i name="e_fr_energy">   -380.17603566 </i>
    <i name="e_wo_entrp">   -379.49098931 </i>
    <i name="e_0_energy">   -379.83351249 </i>
   </energy>
  </scstep>
  <structure>
   <crystal>
    <varray name="basis" >
     <v>       9.71779202       0.00000000       0.00000000 </v>
     <v>       0.00000000      11.22113968       0.00000000 </v>
     <v>       0.00000000       0.00000000      25.00000000 </v>
    </varray>
    <i name="volume">   2726.11754094 </i>
    <varray name="rec_basis" >
     <v>       0.10290403       0.00000000       0.00000000 </v>
     <v>       0.00000000       0.08911751       0.00000000 </v>
     <v>       0.00000000       0.00000000       0.04000000 </v>
    </varray>
   </crystal>
   <varray name="positions" >
    <v>       0.00000000       0.00000000       0.00000000 </v>
    <v>       0.33333333       0.00000000       0.09162022 </v>
    <v>       0.16666306       0.99969530       0.17926229 </v>
    <v>       0.25000000       0.12500000       0.00000000 </v>
    <v>       0.08333333       0.12500000       0.09162022 </v>
    <v>       0.41871335       0.12531444       0.18118479 </v>
    <v>       0.99934804       0.99918175       0.27075614 </v>
    <v>       0.24632727       0.11988143       0.26919287 </v>
    <v>       0.00000000       0.25000000       0.00000000 </v>
    <v>       0.33333333       0.25000000       0.09162022 </v>
    <v>       0.16874691       0.25133097       0.18062078 </v>
    <v>       0.25000000       0.37500000       0.00000000 </v>
    <v>       0.08333333       0.37500000       0.09162022 </v>
    <v>       0.41867047       0.37498540       0.18178964 </v>
    <v>       0.00001606       0.24870323       0.27056249 </v>
    <v>       0.24456164       0.37503789       0.27201795 </v>
    <v>       0.00000000       0.50000000       0.00000000 </v>
    <v>       0.33333333       0.50000000       0.09162022 </v>
    <v>       0.16876113       0.49876728       0.18065508 </v>
    <v>       0.25000000       0.62500000       0.00000000 </v>
    <v>       0.08333333       0.62500000       0.09162022 </v>
    <v>       0.41875797       0.62470147       0.18117739 </v>
    <v>       0.99995356       0.50149454       0.27057418 </v>
    <v>       0.24639817       0.63014792       0.26925993 </v>
    <v>       0.00000000       0.75000000       0.00000000 </v>
    <v>       0.33333333       0.75000000       0.09162022 </v>
    <v>       0.16667806       0.75022304       0.17926714 </v>
    <v>       0.25000000       0.87500000       0.00000000 </v>
    <v>       0.08333333       0.87500000       0.09162022 </v>
    <v>       0.41613179       0.87495142       0.17971895 </v>
    <v>       0.99938178       0.75087988       0.27073340 </v>
    <v>       0.24899397       0.87497722       0.27085722 </v>
    <v>       0.50000000       0.00000000       0.00000000 </v>
    <v>       0.83333333       0.00000000       0.09162022 </v>
    <v>       0.66731513       0.99928026       0.17991469 </v>
    <v>       0.75000000       0.12500000       0.00000000 </v>
    <v>       0.58333333       0.12500000       0.09162022 </v>
    <v>       0.91761333       0.12552351       0.17953530 </v>
    <v>       0.50128223       0.99589801       0.27064756 </v>
    <v>       0.75469989       0.12242825       0.27032212 </v>
    <v>       0.50000000       0.25000000       0.00000000 </v>
    <v>       0.83333333       0.25000000       0.09162022 </v>
    <v>       0.66439534       0.24884442       0.18152519 </v>
    <v>       0.75000000       0.37500000       0.00000000 </v>
    <v>       0.58333333       0.37500000       0.09162022 </v>
    <v>       0.91681059       0.37498848       0.17941410 </v>
    <v>       0.50866237       0.24545644       0.27326873 </v>
    <v>       0.75674164       0.37503045       0.26960022 </v>
    <v>       0.50000000       0.50000000       0.00000000 </v>
    <v>       0.83333333       0.50000000       0.09162022 </v>
    <v>       0.66445237       0.50119379       0.18154312 </v>
    <v>       0.75000000       0.62500000       0.00000000 </v>
    <v>       0.58333333       0.62500000       0.09162022 </v>
    <v>       0.91753466       0.62442845       0.17954153 </v>
    <v>       0.50846380       0.50434720       0.27316996 </v>
    <v>       0.75464162       0.62757881       0.27044538 </v>
    <v>       0.50000000       0.75000000       0.00000000 </v>
    <v>       0.83333333       0.75000000       0.09162022 </v>
    <v>       0.66734933       0.75067470       0.17996470 </v>
    <v>       0.75000000       0.87500000       0.00000000 </v>
    <v>       0.58333333       0.87500000       0.09162022 </v>
    <v>       0.91709544       0.87497879       0.17985631 </v>
    <v>       0.50136947       0.75397915       0.27071421 </v>
    <v>       0.75205501       0.87499730       0.27101025 </v>
    <v>       0.42722742       0.29270426       0.33879487 </v>
    <v>       0.42719679       0.45725518       0.33875157 </v>
   </varray>
  </structure>
  <varray name="forces" >
   <v>       0.01374526      -0.02249959       0.14175850 </v>
   <v>       0.06686837       0.09264773      -0.20572890 </v>
   <v>      -0.00137138      -0.00006646      -0.00392893 </v>
   <v>      -0.01722153      -0.05903784       0.15442346 </v>
   <v>       0.00820445       0.13881185      -0.15613332 </v>
   <v>       0.00121188       0.00635590       0.00330170 </v>
   <v>       0.00087543      -0.00255241      -0.00163705 </v>
   <v>       0.00783196      -0.00411800      -0.00038299 </v>
   <v>       0.09943930      -0.00202821       0.06819269 </v>
   <v>       0.07250358       0.05196591      -0.04725626 </v>
   <v>      -0.01091061      -0.00812138      -0.01143545 </v>
   <v>      -0.03903265      -0.00003895       0.17997128 </v>
   <v>      -0.00841820       0.00223230      -0.10246569 </v>
   <v>      -0.01136115      -0.00045995      -0.01545584 </v>
   <v>      -0.00553807      -0.01027821      -0.00407901 </v>
   <v>      -0.05519743       0.00013994      -0.05436620 </v>
   <v>       0.09964945       0.00142937       0.06831534 </v>
   <v>       0.07135657      -0.05162560      -0.04665982 </v>
   <v>      -0.01266061       0.00548199      -0.01879099 </v>
   <v>      -0.01667360       0.05968792       0.15464521 </v>
   <v>       0.00736467      -0.14033359      -0.15604334 </v>
   <v>      -0.00215589      -0.01141820       0.00416064 </v>
   <v>      -0.00415245       0.00196196      -0.00249774 </v>
   <v>       0.00361049       0.00902575      -0.00501382 </v>
   <v>       0.01417229       0.02281951       0.14166829 </v>
   <v>       0.06649373      -0.09268605      -0.20581739 </v>
   <v>      -0.00255537       0.00068796      -0.00377858 </v>
   <v>      -0.03245371      -0.00019239       0.05125146 </v>
   <v>       0.00335449      -0.00153853      -0.22466095 </v>
   <v>      -0.00075282       0.00074132      -0.00043145 </v>
   <v>      -0.00157488      -0.00005461       0.00310538 </v>
   <v>      -0.00443510       0.00127075      -0.01077609 </v>
   <v>      -0.00502415      -0.02567061       0.16171995 </v>
   <v>      -0.01973981       0.00972194      -0.20871219 </v>
   <v>       0.00016475       0.00222340       0.00645729 </v>
   <v>       0.02057086       0.01203179       0.18003343 </v>
   <v>      -0.03374256       0.10907565      -0.05296587 </v>
   <v>      -0.00179491      -0.00048093       0.00251124 </v>
   <v>      -0.00202495       0.00416588       0.00473860 </v>
   <v>      -0.00389295      -0.00004183       0.01167105 </v>
   <v>       0.01901440      -0.03003404       0.14379360 </v>
   <v>      -0.06958875       0.03420514      -0.21622302 </v>
   <v>       0.00278107      -0.00064553       0.00509750 </v>
   <v>       0.02674398      -0.00003551       0.19632884 </v>
   <v>       0.01277335       0.00126765       0.05833306 </v>
   <v>      -0.00027424       0.00322148      -0.00072067 </v>
   <v>      -0.02408300       0.03142048      -0.00666916 </v>
   <v>      -0.00554125      -0.00091806       0.00226909 </v>
   <v>       0.01947642       0.02903441       0.14369362 </v>
   <v>      -0.06985012      -0.03595257      -0.21625639 </v>
   <v>      -0.00008013      -0.00155734       0.00503073 </v>
   <v>       0.02068909      -0.01160161       0.18028512 </v>
   <v>      -0.03143674      -0.10834675      -0.05089474 </v>
   <v>      -0.00045723       0.00583752       0.00409968 </v>
   <v>      -0.01229974      -0.01846191       0.00417450 </v>
   <v>      -0.00224149       0.00015681       0.00389648 </v>
   <v>      -0.00474110       0.02670617       0.16195611 </v>
   <v>      -0.02125479      -0.01098990      -0.20608025 </v>
   <v>      -0.00118699      -0.00238680       0.00071039 </v>
   <v>      -0.01997554      -0.00028612       0.16121369 </v>
   <v>       0.00768415      -0.00247410      -0.20934524 </v>
   <v>      -0.00344200       0.00072507       0.00155854 </v>
   <v>      -0.00219384      -0.00420880      -0.00078300 </v>
   <v>      -0.00405204       0.00032610      -0.00095285 </v>
   <v>      -0.04954416       0.14986826       0.01503374 </v>
   <v>      -0.05165205      -0.15410552       0.02154299 </v>
  </varray>
  <varray name="stress" >
   <v>     -52.30770440      -0.00219760      -1.32824864 </v>
   <v>      -0.00219762     -53.46286557       0.00300046 </v>
   <v>      -1.32824872       0.00300052      -3.44307515 </v>
  </varray>
  <energy>
   <i name="e_fr_energy">   -415.25837123 </i>
   <i name="e_wo_entrp">   -414.91584805 </i>
   <i name="e_0_energy">     -0.68504636 </i>
  </energy>
  <time name="totalsc">  316.58  317.30</time>
 </calculation>
 <calculation>
  <scstep>
   <time name="dav">    9.05    9.06</time>
   <time name="total">    9.31    9.37</time>
   <dipole>
    <v name="dipole">      0.00000000       0.00000000       0.15170076 </v>
    <i name="Tr[quadrupol]"> -12503.36868661 </i>
    <i name="Echarged">      0.00000000 </i>
    <i name="Edipol_quadrupol">      0.00000000 </i>
    <i name="Eion">      0.00000000 </i>
   </dipole>
   <energy>
    <i name="alphaZ">   1475.46678162 </i>
    <i name="ewald"> 248829.24683223 </i>
    <i name="hartreedc">-298090.87372771 </i>
    <i name="XCdc">    251.36477743 </i>
    <i name="pawpsdc">  57834.05724077 </i>
    <i name="pawaedc"> -56206.24488500 </i>
    <i name="eentropy">     -0.68521324 </i>
    <i name="bandstr">  -2000.38296651 </i>
    <i name="atom">  47527.87699037 </i>
    <i name="e_fr_energy">   -380.17417005 </i>
    <i name="e_wo_entrp">   -379.48895681 </i>
    <i name="e_0_energy">   -379.83156343 </i>
   </energy>
  </scstep>
  <scstep>
   <time name="diag">    1.64    1.64</time>
   <time name="diis">    3.58    3.59</time>
   <time name="orth">    0.67    0.67</time>
   <time name="total">    6.16    6.17</time>
   <dipole>
    <v name="dipole">      0.00000000       0.00000000       0.15170036 </v>
    <i name="Tr[quadrupol]"> -12503.33334441 </i>
    <i name="Echarged">      0.00000000 </i>
    <i name="Edipol_quadrupol">      0.00000000 </i>
    <i name="Eion">      0.00000000 </i>
   </dipole>
   <energy>
    <i name="e_fr_energy">   -380.17502950 </i>
    <i name="e_wo_entrp">   -379.49002975 </i>
    <i name="e_0_energy">   -379.83252962 </i>
   </energy>
  </scstep>
  <scstep>
   <time name="diag">    1.63    1.63</time>
   <time name="diis">    3.61    3.61</time>
   <time name="orth">    0.66    0.66</time>
   <time name="total">    6.17    6.19</time>
   <dipole>
    <v name="dipole">      0.00000000       0.00000000       0.15066170 </v>
    <i name="Tr[quadrupol]"> -12503.34689914 </i>
    <i name="Echarged">      0.00000000 </i>
    <i name="Edipol_quadrupol">      0.00000000 </i>
    <i name="Eion">      0.00000000 </i>
   </dipole>
   <energy>
    <i name="e_fr_energy">   -380.17471534 </i>
    <i name="e_wo_entrp">   -379.48959826 </i>
[...]
       <r>   -16.3318     0.0000     4.0000 </r>
       <r>   -16.2385     0.0000     4.0000 </r>
       <r>   -16.1451     0.0000     4.0000 </r>
       <r>   -16.0518     0.0000     4.0000 </r>
       <r>   -15.9584     0.0000     4.0000 </r>
       <r>   -15.8650     0.0000     4.0000 </r>
       <r>   -15.7717     0.0000     4.0000 </r>
       <r>   -15.6783     0.0000     4.0000 </r>
       <r>   -15.5850     0.0000     4.0000 </r>
       <r>   -15.4916     0.0000     4.0000 </r>
       <r>   -15.3982     0.0000     4.0000 </r>
       <r>   -15.3049     0.0000     4.0000 </r>
       <r>   -15.2115     0.0000     4.0000 </r>
       <r>   -15.1182     0.0000     4.0000 </r>
       <r>   -15.0248     0.0000     4.0000 </r>
       <r>   -14.9314     0.0000     4.0000 </r>
       <r>   -14.8381     0.0000     4.0000 </r>
       <r>   -14.7447     0.0000     4.0000 </r>
       <r>   -14.6513     0.0000     4.0000 </r>
       <r>   -14.5580     0.0000     4.0000 </r>
       <r>   -14.4646     0.0000     4.0000 </r>
       <r>   -14.3713     0.0000     4.0000 </r>
       <r>   -14.2779     0.0000     4.0000 </r>
       <r>   -14.1845     0.0000     4.0000 </r>
       <r>   -14.0912     0.0000     4.0000 </r>
       <r>   -13.9978     0.0000     4.0000 </r>
       <r>   -13.9045     0.0000     4.0000 </r>
       <r>   -13.8111     0.0000     4.0000 </r>
       <r>   -13.7177     0.0000     4.0000 </r>
       <r>   -13.6244     0.0000     4.0000 </r>
       <r>   -13.5310     0.0000     4.0000 </r>
       <r>   -13.4376     0.0000     4.0000 </r>
       <r>   -13.3443     0.0000     4.0000 </r>
       <r>   -13.2509     0.0000     4.0000 </r>
       <r>   -13.1576     0.0000     4.0000 </r>
       <r>   -13.0642     0.0000     4.0000 </r>
       <r>   -12.9708     0.0000     4.0000 </r>
       <r>   -12.8775     0.0000     4.0000 </r>
       <r>   -12.7841     0.0000     4.0000 </r>
       <r>   -12.6908     0.0000     4.0000 </r>
       <r>   -12.5974     0.0000     4.0000 </r>
       <r>   -12.5040     0.0000     4.0000 </r>
       <r>   -12.4107     0.0000     4.0000 </r>
       <r>   -12.3173     0.0000     4.0000 </r>
       <r>   -12.2240     0.0000     4.0000 </r>
       <r>   -12.1306     0.0000     4.0000 </r>
       <r>   -12.0372     0.0000     4.0000 </r>
       <r>   -11.9439     0.0000     4.0000 </r>
       <r>   -11.8505     0.0000     4.0000 </r>
       <r>   -11.7571     0.0000     4.0000 </r>
       <r>   -11.6638     0.0000     4.0000 </r>
       <r>   -11.5704     0.0000     4.0000 </r>
       <r>   -11.4771     0.0000     4.0000 </r>
       <r>   -11.3837     0.0000     4.0000 </r>
       <r>   -11.2903     0.0000     4.0000 </r>
       <r>   -11.1970     0.0000     4.0000 </r>
       <r>   -11.1036     0.0000     4.0000 </r>
       <r>   -11.0103     0.0000     4.0000 </r>
       <r>   -10.9169     0.0000     4.0000 </r>
       <r>   -10.8235     0.0000     4.0000 </r>
       <r>   -10.7302     0.0000     4.0000 </r>
       <r>   -10.6368     0.0000     4.0000 </r>
       <r>   -10.5434     0.0000     4.0000 </r>
       <r>   -10.4501     0.0000     4.0000 </r>
       <r>   -10.3567     0.0000     4.0000 </r>
       <r>   -10.2634     0.0000     4.0000 </r>
       <r>   -10.1700     0.0000     4.0000 </r>
       <r>   -10.0766     0.0000     4.0000 </r>
       <r>    -9.9833     0.0000     4.0000 </r>
       <r>    -9.8899     0.0000     4.0000 </r>
       <r>    -9.7966     0.0000     4.0000 </r>
       <r>    -9.7032     0.0000     4.0000 </r>
       <r>    -9.6098     0.0000     4.0000 </r>
       <r>    -9.5165     0.0000     4.0000 </r>
       <r>    -9.4231     0.0047     4.0004 </r>
       <r>    -9.3298     0.1363     4.0132 </r>
       <r>    -9.2364     0.8379     4.0914 </r>
       <r>    -9.1430     1.5029     4.2317 </r>
       <r>    -9.0497     2.9513     4.5072 </r>
       <r>    -8.9563     4.5414     4.9312 </r>
       <r>    -8.8629     4.0558     5.3099 </r>
       <r>    -8.7696     4.8922     5.7666 </r>
       <r>    -8.6762     2.3731     5.9882 </r>
       <r>    -8.5829     1.3345     6.1128 </r>
       <r>    -8.4895     2.5132     6.3474 </r>
       <r>    -8.3961     3.4453     6.6691 </r>
       <r>    -8.3028     7.2091     7.3421 </r>
       <r>    -8.2094     6.9215     7.9883 </r>
       <r>    -8.1161     5.2392     8.4774 </r>
       <r>    -8.0227     1.8716     8.6522 </r>
       <r>    -7.9293     0.3919     8.6888 </r>
       <r>    -7.8360     2.5325     8.9252 </r>
       <r>    -7.7426     8.1330     9.6845 </r>
       <r>    -7.6492    11.3131    10.7407 </r>
       <r>    -7.5559    10.3824    11.7100 </r>
       <r>    -7.4625     7.5084    12.4110 </r>
       <r>    -7.3692     8.4524    13.2002 </r>
       <r>    -7.2758     7.9840    13.9455 </r>
       <r>    -7.1824     9.1467    14.7995 </r>
       <r>    -7.0891     7.7501    15.5231 </r>
       <r>    -6.9957     8.9362    16.3573 </r>
       <r>    -6.9024    16.7919    17.9251 </r>
       <r>    -6.8090    18.5899    19.6606 </r>
       <r>    -6.7156    14.6809    21.0313 </r>
       <r>    -6.6223    15.6450    22.4919 </r>
       <r>    -6.5289    29.5865    25.2541 </r>
       <r>    -6.4356    45.8097    29.5310 </r>
       <r>    -6.3422    50.7831    34.2722 </r>
       <r>    -6.2488    49.5781    38.9008 </r>
       <r>    -6.1555    52.6977    43.8208 </r>
       <r>    -6.0621    54.7908    48.9361 </r>
       <r>    -5.9687    52.1187    53.8020 </r>
       <r>    -5.8754    62.0848    59.5983 </r>
       <r>    -5.7820    72.2306    66.3418 </r>
       <r>    -5.6887    75.8116    73.4197 </r>
       <r>    -5.5953    79.3972    80.8323 </r>
       <r>    -5.5019    80.0648    88.3073 </r>
       <r>    -5.4086    87.8098    96.5053 </r>
       <r>    -5.3152    91.9075   105.0859 </r>
       <r>    -5.2219    82.4843   112.7868 </r>
       <r>    -5.1285    83.6470   120.5961 </r>
       <r>    -5.0351    85.1599   128.5468 </r>
       <r>    -4.9418    75.3786   135.5842 </r>
       <r>    -4.8484    54.2645   140.6504 </r>
       <r>    -4.7550    49.2294   145.2466 </r>
       <r>    -4.6617    63.2200   151.1489 </r>
       <r>    -4.5683    79.9663   158.6146 </r>
       <r>    -4.4750    83.3741   166.3985 </r>
       <r>    -4.3816    79.6086   173.8309 </r>
       <r>    -4.2882    80.2787   181.3258 </r>
       <r>    -4.1949    90.0451   189.7326 </r>
       <r>    -4.1015    96.0106   198.6962 </r>
       <r>    -4.0082    91.0949   207.2010 </r>
       <r>    -3.9148    79.1684   214.5922 </r>
       <r>    -3.8214    65.8511   220.7402 </r>
       <r>    -3.7281    71.4165   227.4077 </r>
       <r>    -3.6347    79.1479   234.7970 </r>
       <r>    -3.5414    91.0398   243.2966 </r>
       <r>    -3.4480   107.1012   253.2957 </r>
       <r>    -3.3546   117.7410   264.2882 </r>
       <r>    -3.2613   122.5081   275.7257 </r>
       <r>    -3.1679   132.1158   288.0602 </r>
       <r>    -3.0745   140.4156   301.1696 </r>
       <r>    -2.9812   135.3611   313.8071 </r>
       <r>    -2.8878   137.8902   326.6807 </r>
       <r>    -2.7945   132.4672   339.0480 </r>
       <r>    -2.7011   115.3221   349.8146 </r>
       <r>    -2.6077   130.3324   361.9826 </r>
       <r>    -2.5144   134.8672   374.5740 </r>
       <r>    -2.4210   112.6830   385.0942 </r>
       <r>    -2.3277    91.7926   393.6641 </r>
       <r>    -2.2343    76.0109   400.7606 </r>
       <r>    -2.1409    74.1164   407.6802 </r>
       <r>    -2.0476    73.3513   414.5284 </r>
       <r>    -1.9542    83.7124   422.3439 </r>
       <r>    -1.8608   114.0493   432.9917 </r>
       <r>    -1.7675   128.8935   445.0253 </r>
       <r>    -1.6741   110.6776   455.3583 </r>
       <r>    -1.5808    94.0739   464.1412 </r>
       <r>    -1.4874    85.9600   472.1665 </r>
       <r>    -1.3940    75.8394   479.2470 </r>
       <r>    -1.3007    82.7584   486.9734 </r>
       <r>    -1.2073    93.6337   495.7152 </r>
       <r>    -1.1140    98.3016   504.8927 </r>
       <r>    -1.0206   102.2636   514.4402 </r>
       <r>    -0.9272   106.9893   524.4289 </r>
       <r>    -0.8339   119.8862   535.6216 </r>
       <r>    -0.7405   126.8153   547.4612 </r>
       <r>    -0.6472   108.3787   557.5796 </r>
       <r>    -0.5538    91.4995   566.1221 </r>
       <r>    -0.4604    80.1376   573.6039 </r>
       <r>    -0.3671    85.3327   581.5706 </r>
       <r>    -0.2737    96.3202   590.5632 </r>
       <r>    -0.1803    96.3707   599.5605 </r>
       <r>    -0.0870   102.8745   609.1650 </r>
       <r>     0.0064   123.1405   620.6616 </r>
       <r>     0.0997   137.0020   633.4523 </r>
       <r>     0.1931   131.1675   645.6982 </r>
       <r>     0.2865   135.4656   658.3455 </r>
       <r>     0.3798   117.3650   669.3028 </r>
       <r>     0.4732    90.1000   677.7147 </r>
       <r>     0.5665    74.3342   684.6546 </r>
       <r>     0.6599    47.7770   689.1151 </r>
       <r>     0.7533    39.7924   692.8302 </r>
       <r>     0.8466    39.9283   696.5579 </r>
       <r>     0.9400    34.6236   699.7905 </r>
       <r>     1.0334    27.9531   702.4002 </r>
       <r>     1.1267    25.4742   704.7785 </r>
       <r>     1.2201    21.8484   706.8183 </r>
       <r>     1.3134    15.0081   708.2195 </r>
       <r>     1.4068    14.8858   709.6092 </r>
       <r>     1.5002    18.3995   711.3270 </r>
       <r>     1.5935    18.0033   713.0078 </r>
       <r>     1.6869    14.5485   714.3661 </r>
       <r>     1.7802    16.8500   715.9393 </r>
       <r>     1.8736    20.1334   717.8189 </r>
       <r>     1.9670    18.7950   719.5737 </r>
       <r>     2.0603    29.2004   722.2998 </r>
       <r>     2.1537    32.2567   725.3114 </r>
       <r>     2.2470    18.1151   727.0026 </r>
       <r>     2.3404    11.5652   728.0824 </r>
       <r>     2.4338    13.2675   729.3210 </r>
       <r>     2.5271    22.1647   731.3904 </r>
       <r>     2.6205    31.0809   734.2921 </r>
       <r>     2.7139    30.7207   737.1602 </r>
       <r>     2.8072    17.8621   738.8279 </r>
       <r>     2.9006    12.9867   740.0403 </r>
       <r>     2.9939    15.4285   741.4807 </r>
       <r>     3.0873    16.3382   743.0061 </r>
       <r>     3.1807    15.1716   744.4225 </r>
       <r>     3.2740    17.7405   746.0788 </r>
       <r>     3.3674    20.5203   747.9946 </r>
       <r>     3.4607    16.4884   749.5340 </r>
       <r>     3.5541    20.9926   751.4939 </r>
       <r>     3.6475    29.2094   754.2209 </r>
       <r>     3.7408    25.1224   756.5664 </r>
       <r>     3.8342    25.2367   758.9225 </r>
       <r>     3.9276    20.9945   760.8826 </r>
       <r>     4.0209    13.4796   762.1411 </r>
       <r>     4.1143     7.9839   762.8864 </r>
       <r>     4.2076     7.4671   763.5836 </r>
       <r>     4.3010    14.6637   764.9526 </r>
       <r>     4.3944    26.7116   767.4464 </r>
       <r>     4.4877    29.7664   770.2255 </r>
       <r>     4.5811    24.8999   772.5502 </r>
       <r>     4.6744    22.2001   774.6228 </r>
       <r>     4.7678    18.0147   776.3047 </r>
       <r>     4.8612    13.6595   777.5799 </r>
       <r>     4.9545    12.0271   778.7028 </r>
       <r>     5.0479    14.0156   780.0113 </r>
       <r>     5.1412    13.8343   781.3029 </r>
       <r>     5.2346    11.2595   782.3541 </r>
       <r>     5.3280    12.6549   783.5356 </r>
       <r>     5.4213    14.1709   784.8586 </r>
       <r>     5.5147    10.7131   785.8588 </r>
       <r>     5.6081     5.8705   786.4069 </r>
       <r>     5.7014    11.7008   787.4993 </r>
       <r>     5.7948    25.2493   789.8566 </r>
       <r>     5.8881    30.0561   792.6626 </r>
       <r>     5.9815    24.8418   794.9819 </r>
       <r>     6.0749    20.4849   796.8944 </r>
       <r>     6.1682    10.0037   797.8284 </r>
       <r>     6.2616     1.7427   797.9911 </r>
       <r>     6.3549     0.0944   797.9999 </r>
       <r>     6.4483     0.0013   798.0000 </r>
       <r>     6.5417     0.0000   798.0000 </r>
       <r>     6.6350     0.0000   798.0000 </r>
       <r>     6.7284     0.0000   798.0000 </r>
       <r>     6.8218     0.0000   798.0000 </r>
       <r>     6.9151     0.0000   798.0000 </r>
       <r>     7.0085     0.0000   798.0000 </r>
       <r>     7.1018     0.0000   798.0000 </r>
       <r>     7.1952     0.0000   798.0000 </r>
       <r>     7.2886     0.0000   798.0000 </r>
       <r>     7.3819     0.0000   798.0000 </r>
      </set>
     </set>
    </array>
   </total>
  </dos>
 </calculation>
 <structure name="finalpos" >
  <crystal>
   <varray name="basis" >
    <v>       9.71779202       0.00000000       0.00000000 </v>
    <v>       0.00000000      11.22113968       0.00000000 </v>
    <v>       0.00000000       0.00000000      25.00000000 </v>
   </varray>
   <i name="volume">   2726.11754094 </i>
   <varray name="rec_basis" >
    <v>       0.10290403       0.00000000       0.00000000 </v>
    <v>       0.00000000       0.08911751       0.00000000 </v>
    <v>       0.00000000       0.00000000       0.04000000 </v>
   </varray>
  </crystal>
  <varray name="positions" >
   <v>       0.00000000       0.00000000       0.00000000 </v>
   <v>       0.33333333       0.00000000       0.09162022 </v>
   <v>       0.16666306       0.99969530       0.17926229 </v>
   <v>       0.25000000       0.12500000       0.00000000 </v>
   <v>       0.08333333       0.12500000       0.09162022 </v>
   <v>       0.41871335       0.12531444       0.18118479 </v>
   <v>       0.99934804       0.99918175       0.27075614 </v>
   <v>       0.24632727       0.11988143       0.26919287 </v>
   <v>       0.00000000       0.25000000       0.00000000 </v>
   <v>       0.33333333       0.25000000       0.09162022 </v>
   <v>       0.16874691       0.25133097       0.18062078 </v>
   <v>       0.25000000       0.37500000       0.00000000 </v>
   <v>       0.08333333       0.37500000       0.09162022 </v>
   <v>       0.41867047       0.37498540       0.18178964 </v>
   <v>       0.00001606       0.24870323       0.27056249 </v>
   <v>       0.24456164       0.37503789       0.27201795 </v>
   <v>       0.00000000       0.50000000       0.00000000 </v>
   <v>       0.33333333       0.50000000       0.09162022 </v>
   <v>       0.16876113       0.49876728       0.18065508 </v>
   <v>       0.25000000       0.62500000       0.00000000 </v>
   <v>       0.08333333       0.62500000       0.09162022 </v>
   <v>       0.41875797       0.62470147       0.18117739 </v>
   <v>       0.99995356       0.50149454       0.27057418 </v>
   <v>       0.24639817       0.63014792       0.26925993 </v>
   <v>       0.00000000       0.75000000       0.00000000 </v>
   <v>       0.33333333       0.75000000       0.09162022 </v>
   <v>       0.16667806       0.75022304       0.17926714 </v>
   <v>       0.25000000       0.87500000       0.00000000 </v>
   <v>       0.08333333       0.87500000       0.09162022 </v>
   <v>       0.41613179       0.87495142       0.17971895 </v>
   <v>       0.99938178       0.75087988       0.27073340 </v>
   <v>       0.24899397       0.87497722       0.27085722 </v>
   <v>       0.50000000       0.00000000       0.00000000 </v>
   <v>       0.83333333       0.00000000       0.09162022 </v>
   <v>       0.66731513       0.99928026       0.17991469 </v>
   <v>       0.75000000       0.12500000       0.00000000 </v>
   <v>       0.58333333       0.12500000       0.09162022 </v>
   <v>       0.91761333       0.12552351       0.17953530 </v>
   <v>       0.50128223       0.99589801       0.27064756 </v>
   <v>       0.75469989       0.12242825       0.27032212 </v>
   <v>       0.50000000       0.25000000       0.00000000 </v>
   <v>       0.83333333       0.25000000       0.09162022 </v>
   <v>       0.66439534       0.24884442       0.18152519 </v>
   <v>       0.75000000       0.37500000       0.00000000 </v>
   <v>       0.58333333       0.37500000       0.09162022 </v>
   <v>       0.91681059       0.37498848       0.17941410 </v>
   <v>       0.50866237       0.24545644       0.27326873 </v>
   <v>       0.75674164       0.37503045       0.26960022 </v>
   <v>       0.50000000       0.50000000       0.00000000 </v>
   <v>       0.83333333       0.50000000       0.09162022 </v>
   <v>       0.66445237       0.50119379       0.18154312 </v>
   <v>       0.75000000       0.62500000       0.00000000 </v>
   <v>       0.58333333       0.62500000       0.09162022 </v>
   <v>       0.91753466       0.62442845       0.17954153 </v>
   <v>       0.50846380       0.50434720       0.27316996 </v>
   <v>       0.75464162       0.62757881       0.27044538 </v>
   <v>       0.50000000       0.75000000       0.00000000 </v>
   <v>       0.83333333       0.75000000       0.09162022 </v>
   <v>       0.66734933       0.75067470       0.17996470 </v>
   <v>       0.75000000       0.87500000       0.00000000 </v>
   <v>       0.58333333       0.87500000       0.09162022 </v>
   <v>       0.91709544       0.87497879       0.17985631 </v>
   <v>       0.50136947       0.75397915       0.27071421 </v>
   <v>       0.75205501       0.87499730       0.27101025 </v>
   <v>       0.42722742       0.29270426       0.33879487 </v>
   <v>       0.42719679       0.45725518       0.33815157 </v>
  </varray>
  <varray name="selective"  type="logical" >
   <v type="logical" >  F  F  F </v>
   <v type="logical" >  F  F  F </v>
   <v type="logical" >  F  F  F </v>
   <v type="logical" >  F  F  F </v>
   <v type="logical" >  F  F  F </v>
   <v type="logical" >  F  F  F </v>
   <v type="logical" >  F  F  F </v>
   <v type="logical" >  F  F  F </v>
   <v type="logical" >  F  F  F </v>
   <v type="logical" >  F  F  F </v>
   <v type="logical" >  F  F  F </v>
   <v type="logical" >  F  F  F </v>
   <v type="logical" >  F  F  F </v>
   <v type="logical" >  F  F  F </v>
   <v type="logical" >  F  F  F </v>
   <v type="logical" >  F  F  F </v>
   <v type="logical" >  F  F  F </v>
   <v type="logical" >  F  F  F </v>
   <v type="logical" >  F  F  F </v>
   <v type="logical" >  F  F  F </v>
   <v type="logical" >  F  F  F </v>
   <v type="logical" >  F  F  F </v>
   <v type="logical" >  F  F  F </v>
   <v type="logical" >  F  F  F </v>
   <v type="logical" >  F  F  F </v>
   <v type="logical" >  F  F  F </v>
   <v type="logical" >  F  F  F </v>
   <v type="logical" >  F  F  F </v>
   <v type="logical" >  F  F  F </v>
   <v type="logical" >  F  F  F </v>
   <v type="logical" >  F  F  F </v>
   <v type="logical" >  F  F  F </v>
   <v type="logical" >  F  F  F </v>
   <v type="logical" >  F  F  F </v>
   <v type="logical" >  F  F  F </v>
   <v type="logical" >  F  F  F </v>
   <v type="logical" >  F  F  F </v>
   <v type="logical" >  F  F  F </v>
   <v type="logical" >  F  F  F </v>
   <v type="logical" >  F  F  F </v>
   <v type="logical" >  F  F  F </v>
   <v type="logical" >  F  F  F </v>
   <v type="logical" >  F  F  F </v>
   <v type="logical" >  F  F  F </v>
   <v type="logical" >  F  F  F </v>
   <v type="logical" >  F  F  F </v>
   <v type="logical" >  F  F  F </v>
   <v type="logical" >  F  F  F </v>
   <v type="logical" >  F  F  F </v>
   <v type="logical" >  F  F  F </v>
   <v type="logical" >  F  F  F </v>
   <v type="logical" >  F  F  F </v>
   <v type="logical" >  F  F  F </v>
   <v type="logical" >  F  F  F </v>
   <v type="logical" >  F  F  F </v>
   <v type="logical" >  F  F  F </v>
   <v type="logical" >  F  F  F </v>
   <v type="logical" >  F  F  F </v>
   <v type="logical" >  F  F  F </v>
   <v type="logical" >  F  F  F </v>
   <v type="logical" >  F  F  F </v>
   <v type="logical" >  F  F  F </v>
   <v type="logical" >  F  F  F </v>
   <v type="logical" >  F  F  F </v>
   <v type="logical" >  T  T  T </v>
   <v type="logical" >  T  T  T </v>
  </varray>
  <nose>
   <v>      -3.00000000       0.00000000       0.00010000       0.00010000 </v>
  </nose>
 </structure>
</modeling>
