       N       E                     dE             d eps       ncg     rms          rms(c)
DAV:   1     0.429891365857E+04    0.42989E+04   -0.26898E+05  3920   0.127E+03
DAV:   2    -0.677241815233E+02   -0.43666E+04   -0.40287E+04  4632   0.280E+02
DAV:   3    -0.392839547963E+03   -0.32512E+03   -0.29293E+03  4592   0.699E+01
DAV:   4    -0.408881030573E+03   -0.16041E+02   -0.15074E+02  5064   0.141E+01
DAV:   5    -0.409334461441E+03   -0.45343E+00   -0.44960E+00  5288   0.246E+00    0.856E+01
RMM:   6    -0.397771896868E+03    0.11563E+02   -0.74176E+01  3937   0.137E+01    0.648E+01
RMM:   7    -0.611425055934E+03   -0.21365E+03   -0.34224E+02  4301   0.173E+01    0.103E+02
RMM:   8    -0.520498298077E+03    0.90927E+02   -0.13866E+02  3924   0.116E+01    0.889E+01
RMM:   9    -0.422659568113E+03    0.97839E+02   -0.80794E+01  3932   0.108E+01    0.487E+01
RMM:  10    -0.411548801085E+03    0.11111E+02   -0.63759E+01  3935   0.960E+00    0.470E+01
RMM:  11    -0.402323977543E+03    0.92248E+01   -0.21785E+01  3933   0.542E+00    0.429E+01
RMM:  12    -0.385195632574E+03    0.17128E+02   -0.68669E+00  3933   0.329E+00    0.178E+01
RMM:  13    -0.383316120570E+03    0.18795E+01   -0.18514E+00  3936   0.174E+00    0.123E+01
RMM:  14    -0.382686761248E+03    0.62936E+00   -0.43696E-01  3963   0.854E-01    0.774E+00
RMM:  15    -0.382759564233E+03   -0.72803E-01   -0.28710E-01  3937   0.633E-01    0.793E+00
RMM:  16    -0.383075700578E+03   -0.31614E+00   -0.36565E-01  3931   0.734E-01    0.970E+00
RMM:  17    -0.382417709301E+03    0.65799E+00   -0.17779E-01  3929   0.538E-01    0.578E+00
RMM:  18    -0.382289660546E+03    0.12805E+00   -0.72401E-02  3932   0.369E-01    0.467E+00
RMM:  19    -0.382257777924E+03    0.31883E-01   -0.55029E-02  3934   0.293E-01    0.422E+00
RMM:  20    -0.382204937316E+03    0.52841E-01   -0.50784E-02  3931   0.291E-01    0.313E+00
RMM:  21    -0.382153612755E+03    0.51325E-01   -0.47528E-02  3934   0.262E-01    0.238E+00
RMM:  22    -0.382133962092E+03    0.19651E-01   -0.11516E-02  3959   0.126E-01    0.203E+00
RMM:  23    -0.382125376001E+03    0.85861E-02   -0.28382E-03  4034   0.628E-02    0.186E+00
RMM:  24    -0.382117536464E+03    0.78395E-02   -0.11298E-03  3948   0.450E-02    0.170E+00
RMM:  25    -0.382102570403E+03    0.14966E-01   -0.21112E-03  3929   0.550E-02    0.132E+00
RMM:  26    -0.382090904386E+03    0.11666E-01   -0.30494E-03  3930   0.643E-02    0.850E-01
RMM:  27    -0.382087991253E+03    0.29131E-02   -0.12021E-03  3939   0.412E-02    0.656E-01
RMM:  28    -0.382084304537E+03    0.36867E-02   -0.12390E-03  3931   0.399E-02    0.397E-01
RMM:  29    -0.382083733511E+03    0.57103E-03   -0.27833E-04  4097   0.181E-02    0.335E-01
RMM:  30    -0.382082561385E+03    0.11721E-02   -0.64114E-04  3929   0.287E-02    0.146E-01
RMM:  31    -0.382082463460E+03    0.97926E-04   -0.19159E-04  3979   0.143E-02    0.865E-02
RMM:  32    -0.382082508155E+03   -0.44695E-04   -0.69215E-05  4040   0.877E-03    0.453E-02
RMM:  33    -0.382082609084E+03   -0.10093E-03   -0.24482E-05  3974   0.576E-03    0.354E-02
RMM:  34    -0.382082689278E+03   -0.80195E-04   -0.69828E-06  3232   0.378E-03    0.332E-02
RMM:  35    -0.382082759407E+03   -0.70128E-04   -0.11189E-05  3643   0.352E-03    0.135E-02
RMM:  36    -0.382082809180E+03   -0.49773E-04   -0.36309E-06  2702   0.207E-03    0.146E-02
RMM:  37    -0.382082924694E+03   -0.11551E-03   -0.53155E-06  2841   0.206E-03    0.211E-02
RMM:  38    -0.382082974888E+03   -0.50194E-04   -0.40555E-06  2711   0.218E-03    0.196E-02
RMM:  39    -0.382083027322E+03   -0.52433E-04   -0.61048E-06  2973   0.269E-03    0.139E-02
RMM:  40    -0.382083037595E+03   -0.10274E-04   -0.93485E-07  2255   0.102E-03    0.113E-02
RMM:  41    -0.382083051038E+03   -0.13443E-04   -0.79169E-07  2192   0.925E-04    0.142E-02
RMM:  42    -0.382083059405E+03   -0.83669E-05   -0.51719E-07  2105   0.757E-04    0.123E-02
RMM:  43    -0.382083062476E+03   -0.30710E-05   -0.15166E-07  1250   0.457E-04    0.587E-03
RMM:  44    -0.382083068259E+03   -0.57830E-05   -0.25213E-07  2009   0.607E-04    0.282E-03
RMM:  45    -0.382083076474E+03   -0.82148E-05   -0.11540E-07  1351   0.464E-04    0.168E-03
RMM:  46    -0.382083081231E+03   -0.47570E-05   -0.43257E-08   742   0.352E-04    0.192E-03
RMM:  47    -0.382083087632E+03   -0.64005E-05   -0.10435E-07   992   0.383E-04    0.153E-03
RMM:  48    -0.382083091947E+03   -0.43157E-05   -0.92507E-08   988   0.383E-04    0.108E-03
RMM:  49    -0.382083095411E+03   -0.34636E-05   -0.12574E-07  1126   0.384E-04    0.231E-03
RMM:  50    -0.382083096890E+03   -0.14790E-05   -0.24396E-08   486   0.301E-04    0.177E-03
RMM:  51    -0.382083098507E+03   -0.16168E-05   -0.58666E-08   711   0.336E-04    0.987E-04
RMM:  52    -0.382083099150E+03   -0.64319E-06   -0.25584E-08   495   0.316E-04
   1 F= -.41729108E+03 E0= -.41696380E+03  d E =-.417291E+03
       N       E                     dE             d eps       ncg     rms          rms(c)
DAV:   1    -0.382081413592E+03    0.16849E-02   -0.22819E+00  3992   0.197E+00    0.257E-01
RMM:   2    -0.382088926761E+03   -0.75132E-02   -0.30241E-02  3929   0.308E-01    0.100E+00
RMM:   3    -0.382082386185E+03    0.65406E-02   -0.29808E-03  4010   0.917E-02    0.246E-01
RMM:   4    -0.382090476298E+03   -0.80901E-02   -0.17615E-03  3980   0.561E-02    0.949E-01
RMM:   5    -0.382083305743E+03    0.71706E-02   -0.79800E-04  3955   0.361E-02    0.301E-01
RMM:   6    -0.382083637395E+03   -0.33165E-03   -0.42706E-04  3933   0.310E-02    0.206E-01
RMM:   7    -0.382084007208E+03   -0.36981E-03   -0.48256E-04  3931   0.280E-02    0.245E-01
RMM:   8    -0.382083811259E+03    0.19595E-03   -0.21418E-04  3939   0.221E-02    0.107E-01
RMM:   9    -0.382083740516E+03    0.70743E-04   -0.48649E-05  3933   0.961E-03    0.641E-02
RMM:  10    -0.382083720753E+03    0.19763E-04   -0.16817E-05  3919   0.507E-03    0.407E-02
RMM:  11    -0.382083708308E+03    0.12445E-04   -0.10072E-05  3907   0.414E-03    0.162E-02
RMM:  12    -0.382083707490E+03    0.81816E-06   -0.37251E-06  2675   0.257E-03
   2 F= -.41731163E+03 E0= -.41698406E+03  d E =-.205499E-01
       N       E                     dE             d eps       ncg     rms          rms(c)
DAV:   1    -0.382046833808E+03    0.36875E-01   -0.28677E+01  3984   0.698E+00    0.833E-01
RMM:   2    -0.382127402035E+03   -0.80568E-01   -0.36899E-01  3945   0.108E+00    0.253E+00
RMM:   3    -0.382096436974E+03    0.30965E-01   -0.33672E-02  3990   0.263E-01    0.176E+00
RMM:   4    -0.382082290628E+03    0.14146E-01   -0.83396E-03  3945   0.112E-01    0.976E-01
RMM:   5    -0.382080457131E+03    0.18335E-02   -0.10712E-02  3938   0.148E-01    0.867E-01
RMM:   6    -0.382076861544E+03    0.35956E-02   -0.36869E-03  3931   0.900E-02    0.498E-01
RMM:   7    -0.382081366821E+03   -0.45053E-02   -0.52735E-03  3931   0.925E-02    0.884E-01
RMM:   8    -0.382077743793E+03    0.36230E-02   -0.22622E-03  3939   0.686E-02    0.415E-01
RMM:   9    -0.382076471753E+03    0.12720E-02   -0.57407E-04  3932   0.304E-02    0.231E-01
RMM:  10    -0.382076186838E+03    0.28491E-03   -0.20515E-04  3940   0.182E-02    0.123E-01
RMM:  11    -0.382076093022E+03    0.93816E-04   -0.10882E-04  3933   0.137E-02    0.598E-02
RMM:  12    -0.382076077021E+03    0.16001E-04   -0.44348E-05  3942   0.867E-03    0.383E-02
RMM:  13    -0.382076068045E+03    0.89760E-05   -0.25283E-05  3917   0.645E-03    0.253E-02
RMM:  14    -0.382076064569E+03    0.34759E-05   -0.10631E-05  3892   0.414E-03    0.111E-02
RMM:  15    -0.382076065756E+03   -0.11871E-05   -0.25759E-06  2291   0.229E-03    0.100E-02
RMM:  16    -0.382076066141E+03   -0.38475E-06   -0.98198E-07  2105   0.154E-03
   3 F= -.41737512E+03 E0= -.41704659E+03  d E =-.634863E-01
       N       E                     dE             d eps       ncg     rms          rms(c)
DAV:   1    -0.382011273409E+03    0.64792E-01   -0.38695E+01  3920   0.820E+00    0.963E-01
RMM:   2    -0.382141815668E+03   -0.13054E+00   -0.52809E-01  3975   0.127E+00    0.313E+00
RMM:   3    -0.382084162629E+03    0.57653E-01   -0.47111E-02  3996   0.299E-01    0.208E+00
RMM:   4    -0.382062462218E+03    0.21700E-01   -0.13873E-02  3941   0.148E-01    0.126E+00
RMM:   5    -0.382056627783E+03    0.58344E-02   -0.13112E-02  3943   0.173E-01    0.841E-01
RMM:   6    -0.382054183105E+03    0.24447E-02   -0.38549E-03  3939   0.929E-02    0.481E-01
RMM:   7    -0.382060745995E+03   -0.65629E-02   -0.67696E-03  3932   0.105E-01    0.106E+00
RMM:   8    -0.382054884334E+03    0.58617E-02   -0.29993E-03  3936   0.748E-02    0.466E-01
RMM:   9    -0.382053221606E+03    0.16627E-02   -0.67870E-04  3933   0.323E-02    0.241E-01
RMM:  10    -0.382052867909E+03    0.35370E-03   -0.28745E-04  3940   0.215E-02    0.104E-01
RMM:  11    -0.382052829410E+03    0.38499E-04   -0.91072E-05  3948   0.129E-02    0.526E-02
RMM:  12    -0.382052818801E+03    0.10609E-04   -0.42118E-05  3934   0.836E-03    0.399E-02
RMM:  13    -0.382052810088E+03    0.87130E-05   -0.26090E-05  3919   0.653E-03    0.271E-02
RMM:  14    -0.382052806497E+03    0.35907E-05   -0.10847E-05  3896   0.420E-03    0.132E-02
RMM:  15    -0.382052807482E+03   -0.98458E-06   -0.25137E-06  2295   0.226E-03
   4 F= -.41743447E+03 E0= -.41710493E+03  d E =-.593575E-01
       N       E                     dE             d eps       ncg     rms          rms(c)
DAV:   1    -0.381806533995E+03    0.24627E+00   -0.14213E+02  3920   0.158E+01    0.196E+00
RMM:   2    -0.382394216623E+03   -0.58768E+00   -0.20797E+00  3971   0.248E+00    0.685E+00
RMM:   3    -0.382094250425E+03    0.29997E+00   -0.19381E-01  3991   0.597E-01    0.405E+00
RMM:   4    -0.382018936545E+03    0.75314E-01   -0.64550E-02  3937   0.309E-01    0.266E+00
RMM:   5    -0.381983293620E+03    0.35643E-01   -0.50329E-02  3950   0.314E-01    0.176E+00
RMM:   6    -0.381970847937E+03    0.12446E-01   -0.13496E-02  3940   0.166E-01    0.999E-01
RMM:   7    -0.381994614721E+03   -0.23767E-01   -0.22858E-02  3932   0.191E-01    0.210E+00
RMM:   8    -0.381972307202E+03    0.22308E-01   -0.12230E-02  3943   0.146E-01    0.901E-01
RMM:   9    -0.381966105314E+03    0.62019E-02   -0.27933E-03  3932   0.662E-02    0.462E-01
RMM:  10    -0.381964983729E+03    0.11216E-02   -0.11139E-03  3956   0.405E-02    0.263E-01
RMM:  11    -0.381964558164E+03    0.42556E-03   -0.32908E-04  3944   0.237E-02    0.833E-02
RMM:  12    -0.381964538506E+03    0.19658E-04   -0.10788E-04  3949   0.132E-02    0.734E-02
RMM:  13    -0.381964513587E+03    0.24919E-04   -0.94508E-05  3930   0.125E-02    0.581E-02
RMM:  14    -0.381964498505E+03    0.15082E-04   -0.40290E-05  3924   0.812E-03    0.389E-02
RMM:  15    -0.381964500406E+03   -0.19010E-05   -0.13579E-05  3920   0.483E-03    0.319E-02
RMM:  16    -0.381964496881E+03    0.35248E-05   -0.47325E-06  3098   0.306E-03    0.153E-02
RMM:  17    -0.381964496388E+03    0.49302E-06   -0.11846E-06  2119   0.157E-03
   5 F= -.41750558E+03 E0= -.41717392E+03  d E =-.711014E-01
       N       E                     dE             d eps       ncg     rms          rms(c)
DAV:   1    -0.381897783188E+03    0.66714E-01   -0.18794E+01  3920   0.588E+00    0.771E-01
RMM:   2    -0.381977766695E+03   -0.79984E-01   -0.29942E-01  3966   0.918E-01    0.256E+00
RMM:   3    -0.381941812350E+03    0.35954E-01   -0.28620E-02  3990   0.232E-01    0.173E+00
RMM:   4    -0.381931031081E+03    0.10781E-01   -0.11543E-02  3938   0.127E-01    0.139E+00
RMM:   5    -0.381922619682E+03    0.84114E-02   -0.78206E-03  3949   0.148E-01    0.701E-01
RMM:   6    -0.381921442549E+03    0.11771E-02   -0.22115E-03  3937   0.681E-02    0.437E-01
RMM:   7    -0.381924319170E+03   -0.28766E-02   -0.30573E-03  3929   0.700E-02    0.771E-01
RMM:   8    -0.381921548475E+03    0.27707E-02   -0.17419E-03  3944   0.542E-02    0.354E-01
RMM:   9    -0.381920666868E+03    0.88161E-03   -0.45744E-04  3933   0.276E-02    0.183E-01
RMM:  10    -0.381920497764E+03    0.16910E-03   -0.14826E-04  3945   0.151E-02    0.110E-01
RMM:  11    -0.381920413910E+03    0.83854E-04   -0.65659E-05  3937   0.102E-02    0.395E-02
RMM:  12    -0.381920413239E+03    0.67146E-06   -0.24767E-05  3942   0.631E-03    0.342E-02
RMM:  13    -0.381920411449E+03    0.17898E-05   -0.13047E-05  3914   0.472E-03    0.300E-02
RMM:  14    -0.381920405889E+03    0.55596E-05   -0.66241E-06  3540   0.335E-03    0.154E-02
RMM:  15    -0.381920405917E+03   -0.27445E-07   -0.14223E-06  2155   0.174E-03
   6 F= -.41751891E+03 E0= -.41718659E+03  d E =-.133328E-01
       N       E                     dE             d eps       ncg     rms          rms(c)
DAV:   1    -0.381851846390E+03    0.68559E-01   -0.16868E+01  3920   0.566E+00    0.772E-01
RMM:   2    -0.381928029728E+03   -0.76183E-01   -0.29049E-01  3980   0.883E-01    0.248E+00
RMM:   3    -0.381894194093E+03    0.33836E-01   -0.26876E-02  3990   0.222E-01    0.167E+00
RMM:   4    -0.381887010508E+03    0.71836E-02   -0.12464E-02  3935   0.130E-01    0.153E+00
RMM:   5    -0.381876051334E+03    0.10959E-01   -0.74346E-03  3949   0.148E-01    0.742E-01
RMM:   6    -0.381875058691E+03    0.99264E-03   -0.23016E-03  3937   0.687E-02    0.493E-01
RMM:   7    -0.381877194116E+03   -0.21354E-02   -0.26872E-03  3931   0.660E-02    0.726E-01
RMM:   8    -0.381874843035E+03    0.23511E-02   -0.16674E-03  3945   0.527E-02    0.344E-01
RMM:   9    -0.381874068601E+03    0.77443E-03   -0.49473E-04  3930   0.294E-02    0.169E-01
RMM:  10    -0.381873959818E+03    0.10878E-03   -0.13242E-04  3937   0.144E-02    0.115E-01
RMM:  11    -0.381873866881E+03    0.92938E-04   -0.64843E-05  3931   0.101E-02    0.483E-02
RMM:  12    -0.381873855325E+03    0.11555E-04   -0.30501E-05  3933   0.689E-03    0.300E-02
RMM:  13    -0.381873856806E+03   -0.14809E-05   -0.11938E-05  3915   0.451E-03    0.288E-02
RMM:  14    -0.381873851566E+03    0.52402E-05   -0.62088E-06  3469   0.332E-03    0.145E-02
RMM:  15    -0.381873851321E+03    0.24512E-06   -0.12474E-06  2145   0.163E-03
   7 F= -.41752587E+03 E0= -.41719302E+03  d E =-.696538E-02
       N       E                     dE             d eps       ncg     rms          rms(c)
DAV:   1    -0.381851195718E+03    0.22656E-01   -0.26676E+00  3968   0.232E+00    0.345E-01
RMM:   2    -0.381863270039E+03   -0.12074E-01   -0.52417E-02  3983   0.356E-01    0.101E+00
RMM:   3    -0.381859514301E+03    0.37557E-02   -0.53163E-03  3976   0.100E-01    0.770E-01
RMM:   4    -0.381858990006E+03    0.52429E-03   -0.27584E-03  3947   0.596E-02    0.815E-01
RMM:   5    -0.381855380383E+03    0.36096E-02   -0.14125E-03  3947   0.695E-02    0.336E-01
RMM:   6    -0.381855394051E+03   -0.13668E-04   -0.48073E-04  3936   0.322E-02    0.243E-01
RMM:   7    -0.381855636398E+03   -0.24235E-03   -0.43626E-04  3932   0.270E-02    0.287E-01
RMM:   8    -0.381855317028E+03    0.31937E-03   -0.29295E-04  3940   0.219E-02    0.149E-01
RMM:   9    -0.381855191347E+03    0.12568E-03   -0.10304E-04  3932   0.136E-02    0.687E-02
RMM:  10    -0.381855179275E+03    0.12072E-04   -0.21362E-05  3926   0.591E-03    0.477E-02
RMM:  11    -0.381855165419E+03    0.13856E-04   -0.10407E-05  3892   0.405E-03    0.236E-02
RMM:  12    -0.381855161659E+03    0.37603E-05   -0.59444E-06  3389   0.304E-03    0.120E-02
RMM:  13    -0.381855162361E+03   -0.70260E-06   -0.17197E-06  2171   0.189E-03
   8 F= -.41752734E+03 E0= -.41719433E+03  d E =-.146779E-02
       N       E                     dE             d eps       ncg     rms          rms(c)
DAV:   1    -0.381846084462E+03    0.90772E-02   -0.69762E-01  3968   0.124E+00    0.206E-01
RMM:   2    -0.381849456584E+03   -0.33721E-02   -0.16628E-02  3977   0.184E-01    0.564E-01
RMM:   3    -0.381847540439E+03    0.19161E-02   -0.18120E-03  3958   0.603E-02    0.278E-01
RMM:   4    -0.381850338322E+03   -0.27979E-02   -0.97303E-04  3969   0.408E-02    0.648E-01
RMM:   5    -0.381847166388E+03    0.31719E-02   -0.43828E-04  3941   0.351E-02    0.182E-01
RMM:   6    -0.381847399181E+03   -0.23279E-03   -0.19018E-04  3929   0.215E-02    0.159E-01
RMM:   7    -0.381847423147E+03   -0.23966E-04   -0.12165E-04  3934   0.145E-02    0.144E-01
RMM:   8    -0.381847365654E+03    0.57493E-04   -0.84779E-05  3935   0.117E-02    0.829E-02
RMM:   9    -0.381847334195E+03    0.31460E-04   -0.35517E-05  3924   0.800E-03    0.333E-02
RMM:  10    -0.381847333002E+03    0.11930E-05   -0.63609E-06  3466   0.339E-03    0.201E-02
RMM:  11    -0.381847331148E+03    0.18537E-05   -0.21591E-06  2240   0.202E-03    0.119E-02
RMM:  12    -0.381847330176E+03    0.97205E-06   -0.12708E-06  2137   0.157E-03
   9 F= -.41752818E+03 E0= -.41719513E+03  d E =-.837709E-03
       N       E                     dE             d eps       ncg     rms          rms(c)
DAV:   1    -0.381842435767E+03    0.48954E-02   -0.44405E-01  3968   0.100E+00    0.175E-01
RMM:   2    -0.381844953364E+03   -0.25176E-02   -0.11722E-02  3971   0.145E-01    0.528E-01
RMM:   3    -0.381843144888E+03    0.18085E-02   -0.14326E-03  3956   0.545E-02    0.282E-01
RMM:   4    -0.381844034752E+03   -0.88986E-03   -0.42551E-04  3983   0.399E-02    0.293E-01
RMM:   5    -0.381843557325E+03    0.47743E-03   -0.31728E-04  3936   0.208E-02    0.199E-01
RMM:   6    -0.381843340003E+03    0.21732E-03   -0.11958E-04  3933   0.145E-02    0.128E-01
RMM:   7    -0.381843333468E+03    0.65345E-05   -0.70472E-05  3936   0.111E-02    0.993E-02
RMM:   8    -0.381843313004E+03    0.20464E-04   -0.50817E-05  3926   0.903E-03    0.603E-02
RMM:   9    -0.381843304148E+03    0.88560E-05   -0.23106E-05  3921   0.648E-03    0.292E-02
RMM:  10    -0.381843301859E+03    0.22896E-05   -0.49274E-06  3178   0.305E-03    0.119E-02
RMM:  11    -0.381843301437E+03    0.42171E-06   -0.13449E-06  2098   0.165E-03
  10 F= -.41752903E+03 E0= -.41719597E+03  d E =-.853201E-03
       N       E                     dE             d eps       ncg     rms          rms(c)
DAV:   1    -0.381840267858E+03    0.30340E-02   -0.67338E-01  3936   0.126E+00    0.216E-01
RMM:   2    -0.381844139290E+03   -0.38714E-02   -0.18455E-02  3981   0.175E-01    0.626E-01
RMM:   3    -0.381844395917E+03   -0.25663E-03   -0.25090E-03  3957   0.678E-02    0.691E-01
RMM:   4    -0.381841922572E+03    0.24733E-02   -0.81889E-04  3968   0.560E-02    0.291E-01
RMM:   5    -0.381841706537E+03    0.21604E-03   -0.30873E-04  3940   0.224E-02    0.201E-01
RMM:   6    -0.381841702466E+03    0.40706E-05   -0.20713E-04  3928   0.193E-02    0.166E-01
RMM:   7    -0.381841687217E+03    0.15250E-04   -0.10226E-04  3934   0.137E-02    0.113E-01
RMM:   8    -0.381841674444E+03    0.12773E-04   -0.71901E-05  3936   0.108E-02    0.666E-02
RMM:   9    -0.381841672445E+03    0.19989E-05   -0.33150E-05  3923   0.798E-03    0.342E-02
RMM:  10    -0.381841668809E+03    0.36358E-05   -0.71357E-06  3692   0.374E-03    0.918E-03
RMM:  11    -0.381841668590E+03    0.21886E-06   -0.14124E-06  2128   0.170E-03
  11 F= -.41753002E+03 E0= -.41719698E+03  d E =-.985078E-03
       N       E                     dE             d eps       ncg     rms          rms(c)
DAV:   1    -0.381840287076E+03    0.13817E-02   -0.52497E-01  3936   0.110E+00    0.185E-01
RMM:   2    -0.381844108106E+03   -0.38210E-02   -0.14300E-02  3979   0.155E-01    0.647E-01
RMM:   3    -0.381843649312E+03    0.45879E-03   -0.21027E-03  3956   0.632E-02    0.619E-01
RMM:   4    -0.381841590835E+03    0.20585E-02   -0.73514E-04  3965   0.500E-02    0.250E-01
RMM:   5    -0.381841320211E+03    0.27062E-03   -0.20842E-04  3948   0.195E-02    0.145E-01
RMM:   6    -0.381841374074E+03   -0.53863E-04   -0.14509E-04  3927   0.163E-02    0.134E-01
RMM:   7    -0.381841363506E+03    0.10569E-04   -0.70001E-05  3932   0.112E-02    0.861E-02
RMM:   8    -0.381841364745E+03   -0.12391E-05   -0.52095E-05  3928   0.927E-03    0.547E-02
RMM:   9    -0.381841362847E+03    0.18981E-05   -0.24234E-05  3921   0.678E-03    0.314E-02
RMM:  10    -0.381841358133E+03    0.47134E-05   -0.55166E-06  3349   0.325E-03    0.848E-03
RMM:  11    -0.381841357785E+03    0.34794E-06   -0.11589E-06  2107   0.153E-03
  12 F= -.41753070E+03 E0= -.41719769E+03  d E =-.683801E-03
       N       E                     dE             d eps       ncg     rms          rms(c)
DAV:   1    -0.381842036799E+03   -0.67867E-03   -0.13097E-01  3984   0.537E-01    0.806E-02
RMM:   2    -0.381843420143E+03   -0.13833E-02   -0.33002E-03  3981   0.794E-02    0.403E-01
RMM:   3    -0.381842442192E+03    0.97795E-03   -0.48854E-04  3954   0.322E-02    0.220E-01
RMM:   4    -0.381842325077E+03    0.11712E-03   -0.15762E-04  3945   0.221E-02    0.998E-02
RMM:   5    -0.381842265652E+03    0.59424E-04   -0.37534E-05  3946   0.964E-03    0.430E-02
RMM:   6    -0.381842281147E+03   -0.15495E-04   -0.22434E-05  3930   0.645E-03    0.478E-02
RMM:   7    -0.381842280506E+03    0.64164E-06   -0.12224E-05  3917   0.458E-03    0.327E-02
RMM:   8    -0.381842282040E+03   -0.15345E-05   -0.11932E-05  3915   0.451E-03    0.271E-02
RMM:   9    -0.381842279179E+03    0.28611E-05   -0.50868E-06  3241   0.308E-03    0.162E-02
RMM:  10    -0.381842277683E+03    0.14965E-05   -0.12506E-06  2062   0.161E-03    0.592E-03
RMM:  11    -0.381842277512E+03    0.17062E-06   -0.40339E-07  2017   0.885E-04
  13 F= -.41753106E+03 E0= -.41719806E+03  d E =-.360658E-03
       N       E                     dE             d eps       ncg     rms          rms(c)
DAV:   1    -0.381844584145E+03   -0.23065E-02   -0.28998E-01  3920   0.772E-01    0.101E-01
RMM:   2    -0.381847635187E+03   -0.30510E-02   -0.62767E-03  3988   0.118E-01    0.590E-01
RMM:   3    -0.381844960552E+03    0.26746E-02   -0.81234E-04  3965   0.424E-02    0.191E-01
RMM:   4    -0.381845154133E+03   -0.19358E-03   -0.24618E-04  3943   0.265E-02    0.138E-01
RMM:   5    -0.381845038333E+03    0.11580E-03   -0.62979E-05  3947   0.133E-02    0.520E-02
RMM:   6    -0.381845061191E+03   -0.22858E-04   -0.34661E-05  3932   0.815E-03    0.628E-02
RMM:   7    -0.381845065637E+03   -0.44468E-05   -0.28943E-05  3931   0.687E-03    0.594E-02
RMM:   8    -0.381845056143E+03    0.94944E-05   -0.27864E-05  3923   0.692E-03    0.426E-02
RMM:   9    -0.381845046027E+03    0.10116E-04   -0.90175E-06  3893   0.393E-03    0.229E-02
RMM:  10    -0.381845043685E+03    0.23427E-05   -0.20726E-06  2187   0.202E-03    0.115E-02
RMM:  11    -0.381845042928E+03    0.75671E-06   -0.10501E-06  2077   0.143E-03
  14 F= -.41753155E+03 E0= -.41719855E+03  d E =-.486139E-03
       N       E                     dE             d eps       ncg     rms          rms(c)
DAV:   1    -0.381847112237E+03   -0.20686E-02   -0.45474E-01  3920   0.986E-01    0.137E-01
RMM:   2    -0.381851696500E+03   -0.45843E-02   -0.10594E-02  3981   0.148E-01    0.720E-01
RMM:   3    -0.381848148463E+03    0.35480E-02   -0.14385E-03  3956   0.554E-02    0.325E-01
RMM:   4    -0.381848077848E+03    0.70615E-04   -0.45841E-04  3944   0.367E-02    0.182E-01
RMM:   5    -0.381847867515E+03    0.21033E-03   -0.11014E-04  3951   0.172E-02    0.692E-02
RMM:   6    -0.381847912149E+03   -0.44634E-04   -0.66433E-05  3934   0.112E-02    0.826E-02
RMM:   7    -0.381847911592E+03    0.55647E-06   -0.40635E-05  3936   0.822E-03    0.632E-02
RMM:   8    -0.381847913432E+03   -0.18396E-05   -0.42176E-05  3927   0.852E-03    0.535E-02
RMM:   9    -0.381847899240E+03    0.14191E-04   -0.16197E-05  3920   0.537E-03    0.291E-02
RMM:  10    -0.381847894646E+03    0.45943E-05   -0.37907E-06  2737   0.263E-03    0.133E-02
RMM:  11    -0.381847893435E+03    0.12109E-05   -0.13275E-06  2085   0.158E-03    0.587E-03
RMM:  12    -0.381847893388E+03    0.46988E-07   -0.71731E-07  2057   0.129E-03
  15 F= -.41753198E+03 E0= -.41719901E+03  d E =-.431460E-03
