ITEM: TIMESTEP
36
ITEM: NUMBER OF ATOMS
3074
ITEM: BOX BOUNDS pp pp pp
0.0000000000000000e+00 3.8693948398131120e+01
0.0000000000000000e+00 4.4679925159782847e+01
0.0000000000000000e+00 6.0000000000000000e+01
ITEM: ATOMS id type xs ys zs
1 2 0 0 0
2 2 0.0833341 5.36189e-07 0.0380217
1687 2 0.500005 0.375011 0.114012
4 2 0.0625 0.03125 0
5 2 0.0208336 0.0312508 0.0380218
6 2 0.104167 0.0312523 0.0759945
1675 2 0.499959 0.312381 0.341821
1663 2 0.500007 0.312512 0.113994
1651 2 0.49997 0.249889 0.341804
10 2 0.0624985 0.0312524 0.113967
11 2 0.0208294 0.0312519 0.15194
12 2 0.104158 0.0312523 0.189909
13 2 -1.14078e-05 7.29631e-08 0.227886
14 2 0.0833133 -1.15845e-06 0.265855
15 2 0.0416464 -2.63504e-06 0.303832
16 2 0.0624872 0.0312505 0.227883
17 2 0.0208182 0.0312481 0.265858
18 2 0.104142 0.0312437 0.303828
1344 2 0.478756 0.46875 0.423786
20 2 0.0833136 -5.98434e-06 0.379783
21 2 0.0416599 -5.92609e-06 0.417812
22 2 0.0624789 0.0312412 0.341806
23 2 0.020822 0.0312395 0.379786
24 2 0.104151 0.0312374 0.417809
25 2 0 0.0625 0
26 2 0.083334 0.0625017 0.0380218
27 2 0.0416668 0.0625024 0.0759951
28 2 0.0625 0.09375 0
29 2 0.0208333 0.0937514 0.0380218
30 2 0.104168 0.0937543 0.0759947
31 2 -1.43996e-06 0.0625024 0.113968
32 2 0.0833299 0.062504 0.151938
33 2 0.0416602 0.0625025 0.189911
34 2 0.0624994 0.0937544 0.113967
35 2 0.0208308 0.0937536 0.15194
36 2 0.104161 0.0937545 0.18991
37 2 -9.15496e-06 0.0625005 0.227886
38 2 0.0833164 0.0624968 0.265855
39 2 0.0416493 0.0624926 0.303831
40 2 0.0624912 0.0937511 0.227883
41 2 0.0208226 0.0937469 0.265857
42 2 0.104146 0.0937382 0.303827
1343 2 0.395523 0.46875 0.379914
44 2 0.0833136 0.0624824 0.379782
45 2 0.0416594 0.0624828 0.417811
46 2 0.0624818 0.0937331 0.341805
47 2 0.020824 0.0937298 0.379784
48 2 0.104148 0.0937254 0.417808
49 2 0 0.125 0
50 2 0.083334 0.125003 0.0380218
51 2 0.0416667 0.125004 0.075995
52 2 0.0625 0.15625 0
53 2 0.0208332 0.156252 0.0380218
54 2 0.104168 0.156256 0.075995
1342 2 0.437553 0.46875 0.342301
56 2 0.0833324 0.125006 0.151939
57 2 0.0416634 0.125004 0.189911
58 2 0.0625004 0.156256 0.113967
59 2 0.0208325 0.156255 0.15194
60 2 0.104166 0.156256 0.18991
61 2 -4.86867e-06 0.125001 0.227885
62 2 0.0833226 0.124996 0.265855
63 2 0.0416552 0.124989 0.30383
64 2 0.0624972 0.156252 0.227883
65 2 0.0208295 0.156247 0.265857
66 2 0.104153 0.156235 0.303827
1341 2 0.415118 0.437245 0.417916
68 2 0.0833133 0.124972 0.379781
69 2 0.0416575 0.124973 0.417809
70 2 0.0624868 0.156227 0.341803
71 2 0.0208271 0.156222 0.379782
72 2 0.104141 0.156215 0.417806
73 2 0 0.1875 0
74 2 0.0833338 0.187503 0.0380217
75 2 0.0416667 0.187504 0.075995
76 2 0.0625 0.21875 0
77 2 0.0208328 0.218752 0.0380219
78 2 0.104168 0.218756 0.0759953
1340 2 0.458304 0.437416 0.380622
80 2 0.0833349 0.187507 0.151939
81 2 0.0416671 0.187505 0.189911
82 2 0.0625008 0.218756 0.113967
83 2 0.0208339 0.218756 0.15194
84 2 0.104171 0.218757 0.189911
85 2 3.46525e-07 0.187502 0.227884
86 2 0.0833312 0.187496 0.265855
87 2 0.0416642 0.187488 0.303829
88 2 0.0625033 0.218753 0.227883
89 2 0.0208376 0.218747 0.265856
90 2 0.104163 0.218734 0.303827
1339 2 0.374951 0.437476 0.341948
92 2 0.0833118 0.187464 0.379779
93 2 0.0416523 0.187465 0.417808
94 2 0.062494 0.218725 0.341802
95 2 0.0208307 0.218718 0.379781
96 2 0.104126 0.218706 0.417806
97 2 0 0.25 0
98 2 0.0833333 0.250003 0.0380219
99 2 0.041666 0.250004 0.0759953
100 2 0.0625 0.28125 0
101 2 0.0208319 0.281252 0.0380221
102 2 0.104167 0.281256 0.0759961
1338 2 0.479204 0.46875 0.30427
104 2 0.0833361 0.250007 0.15194
105 2 0.0416699 0.250005 0.189912
106 2 0.0625002 0.281256 0.113968
107 2 0.0208338 0.281255 0.15194
108 2 0.104173 0.281257 0.189914
109 2 5.03576e-06 0.250002 0.227884
110 2 0.0833396 0.249997 0.265856
111 2 0.0416742 0.249988 0.303829
112 2 0.0625076 0.281253 0.227885
113 2 0.0208445 0.281248 0.265857
114 2 0.104172 0.281236 0.30383
1337 2 0.395853 0.46875 0.266021
116 2 0.0833094 0.249961 0.379779
117 2 0.0416427 0.249962 0.417807
118 2 0.0625016 0.281227 0.341804
119 2 0.0208334 0.28122 0.379781
120 2 0.104104 0.281202 0.417808
121 2 0 0.3125 0
122 2 0.0833324 0.312503 0.0380223
123 2 0.0416646 0.312504 0.075996
124 2 0.0625 0.34375 0
125 2 0.0208307 0.343752 0.0380225
126 2 0.104166 0.343755 0.0759972
1336 2 0.437522 0.46875 0.228051
128 2 0.0833355 0.312507 0.151942
129 2 0.0416704 0.312505 0.189914
130 2 0.0624983 0.343755 0.11397
131 2 0.0208318 0.343754 0.151942
132 2 0.104172 0.343756 0.189917
133 2 7.30242e-06 0.312503 0.227886
134 2 0.083345 0.312498 0.26586
135 2 0.0416816 0.312491 0.303831
136 2 0.0625085 0.343753 0.227888
137 2 0.0208477 0.343749 0.26586
138 2 0.104177 0.34374 0.303836
1335 2 0.4167 0.437541 0.304079
140 2 0.0833073 0.312465 0.379782
141 2 0.0416302 0.312466 0.417809
142 2 0.0625064 0.343733 0.341808
143 2 0.0208338 0.343727 0.379783
144 2 0.104081 0.343709 0.417813
145 2 0 0.375 0
146 2 0.0833313 0.375002 0.0380229
147 2 0.0416625 0.375003 0.075997
148 2 0.0625 0.40625 0
149 2 0.0208293 0.406251 0.038023
150 2 0.104164 0.406252 0.0759984
1334 2 0.458366 0.437529 0.266104
152 2 0.0833334 0.375005 0.151944
153 2 0.0416685 0.375004 0.189916
154 2 0.062496 0.406253 0.113971
155 2 0.020829 0.406253 0.151944
156 2 0.10417 0.406253 0.18992
157 2 6.45503e-06 0.375002 0.227888
158 2 0.083346 0.374999 0.265864
159 2 0.0416843 0.374994 0.303835
160 2 0.0625071 0.406252 0.227892
161 2 0.0208472 0.40625 0.265863
162 2 0.104177 0.406245 0.303842
1333 2 0.375019 0.437513 0.227989
164 2 0.0833055 0.374976 0.379788
165 2 0.0416184 0.374976 0.417813
166 2 0.0625076 0.406241 0.341813
167 2 0.0208324 0.406238 0.379787
168 2 0.104063 0.406226 0.417819
169 2 0 0.4375 0
170 2 0.0833304 0.437501 0.0380232
171 2 0.0416611 0.437501 0.0759979
172 2 0.0625 0.46875 0
173 2 0.0208289 0.46875 0.0380232
174 2 0.104163 0.46875 0.0759988
1332 2 0.479175 0.46875 0.190043
176 2 0.0833315 0.437502 0.151946
177 2 0.0416665 0.437501 0.189919
178 2 0.062495 0.46875 0.113972
179 2 0.0208277 0.46875 0.151945
180 2 0.104169 0.46875 0.189922
1331 2 0.395846 0.46875 0.15201
182 2 0.083345 0.4375 0.265868
183 2 0.041684 0.437498 0.303839
184 2 0.0625061 0.46875 0.227893
185 2 0.0208463 0.46875 0.265865
186 2 0.104177 0.46875 0.303845
1330 2 0.437508 0.46875 0.114024
188 2 0.0833042 0.437492 0.379792
189 2 0.0416113 0.437491 0.417816
190 2 0.0625075 0.46875 0.341815
191 2 0.0208315 0.46875 0.379789
192 2 0.104057 0.46875 0.417822
385 2 0.125 0 0
386 2 0.208334 9.84691e-07 0.0380212
387 2 0.166667 1.47824e-06 0.075994
388 2 0.1875 0.03125 0
389 2 0.145834 0.0312515 0.0380214
390 2 0.229168 0.0312535 0.0759937
391 2 0.124998 1.67427e-06 0.113966
392 2 0.208327 2.14461e-06 0.151935
393 2 0.166655 1.42308e-06 0.189907
394 2 0.187499 0.031254 0.113965
395 2 0.145829 0.0312536 0.151937
396 2 0.229155 0.0312531 0.189906
397 2 0.124984 2.19907e-07 0.227881
398 2 0.208306 -2.04289e-06 0.265849
399 2 0.166636 -4.08222e-06 0.303825
400 2 0.187483 0.0312504 0.227878
401 2 0.145811 0.031247 0.265852
402 2 0.229133 0.0312398 0.303822
403 2 0.124972 -5.40273e-06 0.341803
1645 2 0.500008 0.250004 0.227904
1627 2 0.499972 0.187413 0.341799
406 2 0.187466 0.0312365 0.341799
407 2 0.145806 0.0312359 0.379779
408 2 0.229139 0.0312318 0.417803
409 2 0.125 0.0625 0
410 2 0.208335 0.0625029 0.0380215
411 2 0.166668 0.0625043 0.0759942
412 2 0.1875 0.09375 0
413 2 0.145835 0.093753 0.0380217
414 2 0.229169 0.0937568 0.0759945
415 2 0.124999 0.0625047 0.113966
416 2 0.20833 0.0625062 0.151936
417 2 0.166658 0.0625043 0.189908
418 2 0.187501 0.0937576 0.113966
419 2 0.145831 0.0937567 0.151938
420 2 0.22916 0.0937565 0.189908
421 2 0.124987 0.0625009 0.227881
422 2 0.20831 0.0624945 0.26585
423 2 0.166639 0.0624882 0.303825
424 2 0.187488 0.0937515 0.227879
425 2 0.145816 0.0937448 0.265852
426 2 0.229136 0.093731 0.303823
427 2 0.124973 0.062484 0.341802
428 2 0.208298 0.0624738 0.379776
429 2 0.166642 0.0624779 0.417805
430 2 0.187466 0.0937237 0.341799
431 2 0.145804 0.093722 0.379779
432 2 0.229133 0.0937136 0.417803
433 2 0.125 0.125 0
434 2 0.208335 0.125005 0.0380219
435 2 0.166669 0.125007 0.0759948
436 2 0.1875 0.15625 0
437 2 0.145835 0.156254 0.0380218
438 2 0.229171 0.156259 0.0759957
439 2 0.125001 0.125007 0.113967
440 2 0.208334 0.12501 0.151938
441 2 0.166664 0.125007 0.189909
442 2 0.187503 0.15626 0.113967
443 2 0.145835 0.156259 0.151939
444 2 0.229167 0.15626 0.18991
445 2 0.124993 0.125002 0.227881
446 2 0.208316 0.124993 0.265851
447 2 0.166643 0.124982 0.303825
448 2 0.187496 0.156253 0.227881
449 2 0.145824 0.156244 0.265853
450 2 0.229141 0.156225 0.303824
451 2 0.124975 0.124975 0.341801
452 2 0.208293 0.124957 0.379776
453 2 0.166635 0.124964 0.417805
454 2 0.187467 0.156213 0.341799
455 2 0.1458 0.156209 0.379778
456 2 0.229121 0.156195 0.417802
457 2 0.125 0.1875 0
458 2 0.208336 0.187506 0.0380225
459 2 0.16667 0.187508 0.0759955
460 2 0.1875 0.21875 0
461 2 0.145835 0.218754 0.0380221
462 2 0.229172 0.218761 0.0759974
463 2 0.125003 0.187508 0.113967
464 2 0.208339 0.187513 0.15194
465 2 0.16667 0.187509 0.189911
466 2 0.187505 0.218762 0.113969
467 2 0.145838 0.21876 0.15194
468 2 0.229175 0.218764 0.189915
469 2 0.125 0.187503 0.227882
470 2 0.208326 0.187493 0.265853
471 2 0.166651 0.187479 0.303825
472 2 0.187505 0.218756 0.227884
473 2 0.145834 0.218745 0.265855
474 2 0.22915 0.218724 0.303826
475 2 0.124978 0.187468 0.3418
476 2 0.208284 0.187441 0.379775
477 2 0.16662 0.18745 0.417804
478 2 0.187468 0.218706 0.341799
479 2 0.145792 0.2187 0.379777
480 2 0.229097 0.218675 0.417803
481 2 0.125 0.25 0
482 2 0.208336 0.250006 0.0380231
483 2 0.16667 0.250008 0.0759966
484 2 0.1875 0.28125 0
485 2 0.145834 0.281254 0.0380227
486 2 0.229172 0.28126 0.0759995
487 2 0.125003 0.250008 0.113968
488 2 0.208342 0.250014 0.151944
489 2 0.166674 0.25001 0.189914
490 2 0.187506 0.281261 0.113971
491 2 0.145839 0.28126 0.151943
492 2 0.229179 0.281265 0.189921
493 2 0.125007 0.250004 0.227885
494 2 0.208338 0.249997 0.265858
495 2 0.166661 0.24998 0.303828
496 2 0.187511 0.281257 0.227889
497 2 0.145842 0.281247 0.265859
498 2 0.229162 0.281228 0.303834
499 2 0.124983 0.249967 0.341802
500 2 0.208266 0.249927 0.379776
501 2 0.166592 0.249937 0.417805
502 2 0.187472 0.281207 0.341803
503 2 0.145783 0.281197 0.37978
504 2 0.229044 0.281153 0.417807
505 2 0.125 0.3125 0
506 2 0.208336 0.312505 0.0380241
507 2 0.166669 0.312507 0.0759981
508 2 0.1875 0.34375 0
509 2 0.145833 0.343753 0.0380233
510 2 0.229171 0.343758 0.0760018
511 2 0.125002 0.312507 0.11397
512 2 0.208342 0.312513 0.151948
513 2 0.166675 0.312509 0.189918
514 2 0.187504 0.343759 0.113974
515 2 0.145838 0.343758 0.151946
516 2 0.229178 0.343762 0.189928
517 2 0.12501 0.312504 0.227889
518 2 0.208345 0.312499 0.265867
519 2 0.166669 0.312485 0.303835
520 2 0.187511 0.343757 0.227897
521 2 0.145845 0.343749 0.265866
522 2 0.229168 0.343735 0.303847
523 2 0.124989 0.312472 0.341807
524 2 0.208248 0.312425 0.379783
525 2 0.16655 0.312432 0.417811
526 2 0.187477 0.343717 0.341814
527 2 0.145777 0.343706 0.379787
528 2 0.228961 0.343645 0.417818
529 2 0.125 0.375 0
530 2 0.208335 0.375004 0.038025
531 2 0.166668 0.375005 0.0759996
532 2 0.1875 0.40625 0
533 2 0.145832 0.406252 0.0380238
534 2 0.22917 0.406255 0.0760038
535 2 0.125 0.375005 0.113972
536 2 0.20834 0.375009 0.151953
537 2 0.166674 0.375007 0.189923
538 2 0.187502 0.406255 0.113977
539 2 0.145835 0.406254 0.151949
540 2 0.229175 0.406257 0.189935
541 2 0.125009 0.375003 0.227894
542 2 0.208344 0.375001 0.265878
543 2 0.166672 0.374991 0.303846
544 2 0.187509 0.406254 0.227904
545 2 0.145844 0.40625 0.265873
546 2 0.229167 0.406243 0.303864
547 2 0.124992 0.374982 0.341815
548 2 0.20824 0.374944 0.379797
549 2 0.166508 0.374945 0.41782
550 2 0.187479 0.406232 0.341828
551 2 0.145774 0.406225 0.379796
552 2 0.228889 0.406179 0.417836
553 2 0.125 0.4375 0
554 2 0.208334 0.437501 0.0380256
555 2 0.166666 0.437502 0.0760006
556 2 0.1875 0.46875 0
557 2 0.145832 0.46875 0.038024
558 2 0.229169 0.46875 0.0760046
559 2 0.124999 0.437502 0.113974
560 2 0.208337 0.437503 0.151956
561 2 0.166671 0.437502 0.189927
562 2 0.187502 0.46875 0.113978
563 2 0.145834 0.46875 0.15195
564 2 0.229173 0.46875 0.189938
565 2 0.125007 0.437501 0.227897
566 2 0.208341 0.4375 0.265887
567 2 0.166671 0.437497 0.303853
568 2 0.187507 0.46875 0.227907
569 2 0.145842 0.46875 0.265876
570 2 0.229165 0.46875 0.303871
571 2 0.124993 0.437494 0.341821
572 2 0.20824 0.43748 0.379811
573 2 0.166484 0.437479 0.417829
574 2 0.187479 0.46875 0.341834
575 2 0.145774 0.46875 0.3798
576 2 0.228863 0.46875 0.417845
769 2 0.25 0 0
770 2 0.333335 1.04854e-06 0.0380211
771 2 0.291667 1.78702e-06 0.0759932
772 2 0.3125 0.03125 0
773 2 0.270835 0.0312521 0.0380211
774 2 0.354167 0.0312533 0.0759936
775 2 0.249998 2.16066e-06 0.113964
776 2 0.333326 1.93617e-06 0.151935
777 2 0.291653 1.41861e-06 0.189905
778 2 0.312498 0.0312543 0.113964
779 2 0.270827 0.0312544 0.151935
780 2 0.354154 0.0312524 0.189906
781 2 0.24998 -2.54064e-08 0.227876
1621 2 0.499998 0.1875 0.227891
1579 2 0.499974 0.0624645 0.341801
784 2 0.31248 0.0312496 0.227876
785 2 0.270805 0.0312449 0.265848
786 2 0.354131 0.0312355 0.303819
1543 2 0.499997 1.0917e-06 0.113967
788 2 0.333296 -1.34827e-05 0.379772
789 2 0.291639 -1.14222e-05 0.4178
790 2 0.312459 0.0312293 0.341794
791 2 0.270796 0.0312282 0.379774
792 2 0.354139 0.0312211 0.417799
793 2 0.25 0.0625 0
794 2 0.333335 0.0625032 0.0380213
795 2 0.291668 0.0625054 0.0759939
796 2 0.3125 0.09375 0
797 2 0.270835 0.0937543 0.0380216
798 2 0.354169 0.0937568 0.0759946
799 2 0.25 0.0625065 0.113965
800 2 0.333328 0.0625062 0.151936
801 2 0.291657 0.0625046 0.189906
802 2 0.312501 0.0937588 0.113966
803 2 0.270831 0.0937589 0.151937
804 2 0.354159 0.0937559 0.189907
805 2 0.249983 0.0625006 0.227877
806 2 0.333306 0.0624913 0.265847
807 2 0.291631 0.0624818 0.30382
808 2 0.312485 0.0937507 0.227877
809 2 0.27081 0.0937415 0.265849
810 2 0.354131 0.0937227 0.303819
811 2 0.249961 0.0624749 0.341797
812 2 0.333292 0.0624593 0.379772
813 2 0.291634 0.0624655 0.4178
814 2 0.312457 0.0937096 0.341794
815 2 0.270791 0.0937065 0.379774
816 2 0.354132 0.0936907 0.417799
817 2 0.25 0.125 0
818 2 0.333336 0.125005 0.0380221
819 2 0.29167 0.125009 0.0759953
820 2 0.3125 0.15625 0
821 2 0.270836 0.156256 0.0380225
822 2 0.354171 0.15626 0.0759967
823 2 0.250003 0.125011 0.113967
824 2 0.333334 0.125011 0.151939
825 2 0.291663 0.125009 0.189909
826 2 0.312505 0.156263 0.113969
827 2 0.270837 0.156264 0.15194
828 2 0.354167 0.156261 0.189912
829 2 0.249991 0.125003 0.227879
830 2 0.333312 0.124989 0.265849
831 2 0.291634 0.124973 0.303821
832 2 0.312494 0.156255 0.227882
833 2 0.270819 0.156241 0.265852
834 2 0.354134 0.156214 0.303821
835 2 0.24996 0.12496 0.341797
836 2 0.333284 0.124932 0.379771
837 2 0.291625 0.124942 0.4178
838 2 0.312454 0.156192 0.341795
839 2 0.270782 0.156185 0.379774
840 2 0.35412 0.156158 0.417799
841 2 0.25 0.1875 0
842 2 0.333337 0.187507 0.0380234
843 2 0.291672 0.187512 0.0759976
844 2 0.3125 0.21875 0
845 2 0.270837 0.218757 0.0380237
846 2 0.354174 0.218763 0.0760004
847 2 0.250006 0.187514 0.11397
848 2 0.33334 0.187517 0.151944
849 2 0.291672 0.187515 0.189914
850 2 0.312509 0.218767 0.113974
851 2 0.270843 0.218767 0.151945
852 2 0.354177 0.218769 0.189921
853 2 0.250001 0.187507 0.227884
854 2 0.333322 0.187492 0.265855
855 2 0.291641 0.187468 0.303825
856 2 0.312507 0.218762 0.22789
857 2 0.270831 0.218746 0.265857
858 2 0.354142 0.218713 0.303829
859 2 0.249958 0.187448 0.341798
860 2 0.333272 0.187404 0.379773
861 2 0.291608 0.187416 0.417801
862 2 0.312451 0.21868 0.3418
863 2 0.270766 0.218664 0.379775
864 2 0.354099 0.218621 0.417802
865 2 0.25 0.25 0
866 2 0.333338 0.250008 0.0380254
867 2 0.291674 0.250013 0.0760008
868 2 0.3125 0.28125 0
869 2 0.270837 0.281257 0.038025
870 2 0.354175 0.281264 0.0760059
871 2 0.250008 0.250015 0.113973
872 2 0.333347 0.250021 0.151953
873 2 0.291681 0.25002 0.189923
874 2 0.312511 0.281268 0.11398
875 2 0.270846 0.281268 0.151952
876 2 0.354186 0.281276 0.189937
877 2 0.250011 0.250011 0.227891
878 2 0.333338 0.250001 0.265868
879 2 0.291652 0.249971 0.303832
880 2 0.31252 0.28127 0.227905
881 2 0.270845 0.281252 0.265869
882 2 0.354158 0.281223 0.303849
883 2 0.249957 0.249941 0.341801
884 2 0.33325 0.249876 0.37978
885 2 0.291573 0.249887 0.417805
886 2 0.312449 0.281175 0.34181
887 2 0.270735 0.281143 0.379779
888 2 0.354056 0.281078 0.417815
889 2 0.25 0.3125 0
890 2 0.333338 0.312508 0.0380278
891 2 0.291674 0.312512 0.0760045
892 2 0.3125 0.34375 0
893 2 0.270837 0.343756 0.0380266
894 2 0.354176 0.343763 0.0760121
895 2 0.250008 0.312514 0.113977
896 2 0.33335 0.312523 0.151965
897 2 0.291684 0.312521 0.189934
898 2 0.312511 0.343766 0.113988
899 2 0.270845 0.343765 0.151959
900 2 0.354189 0.343777 0.189957
901 2 0.250016 0.312512 0.2279
902 2 0.333357 0.312515 0.265892
903 2 0.291669 0.312482 0.303849
904 2 0.312522 0.343771 0.227923
905 2 0.270849 0.343755 0.265884
906 2 0.35419 0.343748 0.30389
907 2 0.249962 0.312446 0.34181
908 2 0.333197 0.312346 0.379794
909 2 0.291468 0.312344 0.417816
910 2 0.312463 0.343689 0.341832
911 2 0.270705 0.343643 0.379792
912 2 0.353833 0.343497 0.417855
913 2 0.25 0.375 0
914 2 0.333338 0.375006 0.0380302
915 2 0.291673 0.375009 0.0760082
916 2 0.3125 0.40625 0
917 2 0.270836 0.406253 0.0380277
918 2 0.354174 0.406257 0.0760174
919 2 0.250007 0.37501 0.113982
920 2 0.333348 0.375017 0.151977
921 2 0.291681 0.375015 0.189946
922 2 0.312509 0.406259 0.113994
923 2 0.270842 0.406259 0.151965
924 2 0.354184 0.406267 0.189976
925 2 0.250013 0.37501 0.227912
926 2 0.333356 0.375017 0.265921
927 2 0.291671 0.37499 0.303873
928 2 0.312514 0.406263 0.227939
929 2 0.270843 0.406254 0.265901
930 2 0.354178 0.406253 0.303931
931 2 0.249967 0.374962 0.341831
932 2 0.333155 0.374852 0.379822
933 2 0.291296 0.374834 0.417837
934 2 0.312462 0.406211 0.341869
935 2 0.270696 0.406182 0.379821
936 2 0.353446 0.405999 0.417887
937 2 0.25 0.4375 0
938 2 0.333337 0.437502 0.0380317
939 2 0.291672 0.437503 0.0760105
940 2 0.3125 0.46875 0
941 2 0.270836 0.46875 0.0380282
942 2 0.354174 0.46875 0.0760195
943 2 0.250005 0.437503 0.113984
944 2 0.333344 0.437506 0.151985
945 2 0.291676 0.437506 0.189954
946 2 0.312508 0.46875 0.113996
947 2 0.27084 0.46875 0.151968
948 2 0.35418 0.46875 0.189984
949 2 0.250008 0.437504 0.227921
950 2 0.333342 0.437507 0.265942
951 2 0.291663 0.437497 0.303897
952 2 0.312509 0.46875 0.227947
953 2 0.270839 0.46875 0.26591
954 2 0.354157 0.46875 0.30395
955 2 0.249969 0.437487 0.341852
956 2 0.333147 0.437426 0.379871
957 2 0.291175 0.437425 0.417867
958 2 0.312459 0.46875 0.341895
959 2 0.270701 0.46875 0.379838
960 2 0.353267 0.46875 0.417913
1153 2 0.375 0 0
1154 2 0.458334 6.68885e-07 0.0380216
1155 2 0.416667 1.37207e-06 0.0759939
1156 2 0.4375 0.03125 0
1157 2 0.395835 0.0312517 0.0380212
1158 2 0.479167 0.0312521 0.075995
1159 2 0.374997 1.82227e-06 0.113964
1160 2 0.458327 1.193e-06 0.151938
1161 2 0.416654 8.17151e-07 0.189907
1162 2 0.437497 0.031253 0.113966
1163 2 0.395827 0.0312533 0.151936
1164 2 0.479156 0.0312511 0.18991
1329 2 0.416685 0.437512 0.190017
1328 2 0.458343 0.437508 0.152025
1167 2 0.416634 -7.57618e-06 0.303821
1168 2 0.437482 0.0312488 0.227879
1169 2 0.395806 0.0312433 0.265848
1170 2 0.47914 0.0312367 0.303825
1171 2 0.374962 -1.208e-05 0.341794
1172 2 0.458307 -1.79972e-05 0.379775
1173 2 0.416646 -1.78634e-05 0.417801
1174 2 0.437466 0.0312243 0.341796
1175 2 0.395798 0.0312174 0.379772
1176 2 0.479155 0.0312065 0.417805
1177 2 0.375 0.0625 0
1178 2 0.458335 0.0625021 0.0380217
1179 2 0.416667 0.0625041 0.0759944
1180 2 0.4375 0.09375 0
1181 2 0.395835 0.0937536 0.0380217
1182 2 0.479167 0.0937542 0.0759957
1183 2 0.374998 0.0625057 0.113965
1184 2 0.458328 0.0625038 0.151938
1185 2 0.416656 0.0625029 0.189908
1186 2 0.4375 0.0937563 0.113967
1187 2 0.39583 0.0937572 0.151938
1188 2 0.479159 0.0937527 0.189912
1189 2 0.374982 0.0624991 0.227877
1190 2 0.458311 0.0624914 0.265852
1191 2 0.416634 0.0624776 0.30382
1192 2 0.437486 0.0937488 0.22788
1193 2 0.395809 0.0937383 0.265848
1194 2 0.47914 0.0937241 0.303825
1195 2 0.374959 0.0624638 0.341793
1196 2 0.458304 0.0624439 0.379774
1197 2 0.416642 0.0624446 0.4178
1198 2 0.437463 0.0936977 0.341794
1199 2 0.395792 0.093683 0.37977
1200 2 0.479154 0.0936553 0.417803
1201 2 0.375 0.125 0
1202 2 0.458335 0.125004 0.0380223
1203 2 0.416669 0.125007 0.0759957
1204 2 0.4375 0.15625 0
1205 2 0.395836 0.156256 0.0380229
1206 2 0.479169 0.156257 0.0759973
1207 2 0.375002 0.12501 0.113968
1208 2 0.458332 0.125007 0.151941
1209 2 0.416662 0.125006 0.18991
1210 2 0.437503 0.15626 0.11397
1211 2 0.395836 0.156262 0.151941
1212 2 0.479165 0.156255 0.189915
1213 2 0.374988 0.125001 0.227879
1214 2 0.458314 0.124988 0.265853
1215 2 0.416634 0.124965 0.30382
1216 2 0.437493 0.156251 0.227884
1217 2 0.395815 0.156237 0.265851
1218 2 0.479142 0.156213 0.303826
1219 2 0.374955 0.124941 0.341793
1220 2 0.458298 0.124899 0.379771
1221 2 0.416635 0.124902 0.417798
1222 2 0.437458 0.15617 0.341792
1223 2 0.395781 0.156146 0.379769
1224 2 0.479152 0.156086 0.417801
1225 2 0.375 0.1875 0
1226 2 0.458336 0.187505 0.0380236
1227 2 0.416671 0.18751 0.0759985
1228 2 0.4375 0.21875 0
1229 2 0.395837 0.218757 0.0380248
1230 2 0.479171 0.218759 0.0760008
1231 2 0.375006 0.187514 0.113972
1232 2 0.458338 0.187511 0.151945
1233 2 0.41667 0.187512 0.189916
1234 2 0.437507 0.218763 0.113976
1235 2 0.395843 0.218768 0.151949
1236 2 0.479173 0.218759 0.189923
1237 2 0.374999 0.187507 0.227886
1238 2 0.458322 0.187488 0.265857
1239 2 0.416637 0.187457 0.303823
1240 2 0.437503 0.218758 0.227893
1241 2 0.395827 0.218743 0.265861
1242 2 0.479147 0.218708 0.303831
1243 2 0.374951 0.18742 0.341795
1244 2 0.458288 0.187343 0.379768
1245 2 0.416622 0.18735 0.417797
1246 2 0.437453 0.218644 0.341796
1247 2 0.395765 0.218606 0.379773
1248 2 0.47915 0.21848 0.417802
1249 2 0.375 0.25 0
1250 2 0.458337 0.250007 0.0380261
1251 2 0.416674 0.250013 0.0760039
1252 2 0.4375 0.28125 0
1253 2 0.395838 0.281259 0.0380278
1254 2 0.479172 0.281261 0.0760077
1255 2 0.375011 0.250018 0.11398
1256 2 0.458344 0.250015 0.151956
1257 2 0.41668 0.25002 0.18993
1258 2 0.437511 0.281267 0.113987
1259 2 0.395849 0.281273 0.151964
1260 2 0.479181 0.281265 0.189941
1261 2 0.375013 0.250018 0.2279
1262 2 0.458333 0.249996 0.265872
1263 2 0.416646 0.249958 0.303837
1264 2 0.437519 0.28127 0.227915
1265 2 0.395846 0.281258 0.265881
1266 2 0.479155 0.281215 0.303851
1267 2 0.374947 0.249908 0.341807
1268 2 0.458274 0.249771 0.379774
1269 2 0.416602 0.249791 0.417807
1270 2 0.43745 0.281124 0.341819
1271 2 0.39574 0.281069 0.379797
1272 2 0.479167 0.280802 0.417824
1273 2 0.375 0.3125 0
1274 2 0.458337 0.312508 0.0380302
1275 2 0.416675 0.312514 0.0760121
1276 2 0.4375 0.34375 0
1277 2 0.395838 0.343758 0.0380314
1278 2 0.479172 0.34376 0.076018
1279 2 0.375013 0.312519 0.113991
1280 2 0.458348 0.312519 0.151976
1281 2 0.416689 0.312528 0.189956
1282 2 0.437511 0.343767 0.114003
1283 2 0.395851 0.343773 0.151984
1284 2 0.479185 0.34377 0.189976
1285 2 0.375028 0.312531 0.227928
1286 2 0.458357 0.312515 0.265907
1287 2 0.416665 0.312474 0.30386
1288 2 0.437531 0.343785 0.227964
1289 2 0.39587 0.343787 0.265934
1290 2 0.479197 0.343751 0.303909
1291 2 0.374947 0.312409 0.34184
1292 2 0.45826 0.312179 0.379838
1293 2 0.416578 0.312235 0.417855
1294 2 0.437437 0.343604 0.341808
1295 2 0.395655 0.34353 0.379873
1296 2 0.479389 0.342994 0.418098
1297 2 0.375 0.375 0
1298 2 0.458336 0.375006 0.0380348
1299 2 0.416674 0.375011 0.076021
1300 2 0.4375 0.40625 0
1301 2 0.395838 0.406255 0.0380346
1302 2 0.47917 0.406257 0.0760281
1303 2 0.375012 0.375015 0.114003
1304 2 0.458347 0.375018 0.152004
1305 2 0.41669 0.375027 0.189991
1306 2 0.43751 0.406261 0.114018
1307 2 0.395849 0.406265 0.152003
1308 2 0.47918 0.406267 0.190021
1309 2 0.375028 0.375032 0.227964
1310 2 0.458376 0.375046 0.266002
1311 2 0.416712 0.375047 0.303969
1312 2 0.437529 0.406281 0.228023
1313 2 0.395866 0.406287 0.265995
1314 2 0.47922 0.40631 0.30412
1315 2 0.374999 0.374945 0.341901
1316 2 0.45807 0.374427 0.379595
1317 2 0.416027 0.374641 0.41819
1318 2 0.437538 0.406316 0.342086
1319 2 0.39565 0.406044 0.379923
1320 2 0.479483 0.405497 0.418898
1321 2 0.375 0.4375 0
1322 2 0.458335 0.437502 0.0380381
1323 2 0.416673 0.437504 0.0760272
1324 2 0.4375 0.46875 0
1325 2 0.395837 0.46875 0.038036
1326 2 0.479169 0.46875 0.0760324
1327 2 0.37501 0.437506 0.11401
194 2 0.0833304 0.499999 0.0380232
200 2 0.0833315 0.499998 0.151946
201 2 0.0416665 0.499999 0.189919
206 2 0.083345 0.5 0.265868
212 2 0.0833042 0.500008 0.379792
213 2 0.0416113 0.500009 0.417816
578 2 0.208334 0.499999 0.0380256
579 2 0.166666 0.499998 0.0760006
583 2 0.124999 0.499998 0.113974
590 2 0.208341 0.5 0.265887
591 2 0.166671 0.500003 0.303853
595 2 0.124993 0.500006 0.341821
962 2 0.333337 0.499998 0.0380317
963 2 0.291672 0.499997 0.0760105
968 2 0.333344 0.499994 0.151985
969 2 0.291676 0.499994 0.189954
973 2 0.250008 0.499996 0.227921
1346 2 0.458335 0.499998 0.0380381
1347 2 0.416673 0.499996 0.0760272
1351 2 0.37501 0.499994 0.11401
1352 2 0.458343 0.499992 0.152025
1358 2 0.458366 0.499971 0.266104
1359 2 0.4167 0.499959 0.304079
193 2 0 0.5 0
1903 2 0.499997 0.937499 0.113967
195 2 0.0416611 0.499999 0.0759979
196 2 0.0625 0.53125 0
197 2 0.0208293 0.531249 0.038023
198 2 0.104164 0.531248 0.0759984
1536 2 0.479156 0.96875 0.417805
1891 2 0.499974 0.875035 0.341801
1843 2 0.499972 0.750087 0.341799
202 2 0.062496 0.531247 0.113971
203 2 0.020829 0.531247 0.151944
204 2 0.10417 0.531247 0.18992
1535 2 0.3958 0.96875 0.379773
1837 2 0.499998 0.75 0.227891
207 2 0.041684 0.500002 0.303839
208 2 0.0625071 0.531248 0.227892
209 2 0.0208472 0.53125 0.265863
210 2 0.104177 0.531255 0.303842
1534 2 0.437467 0.96875 0.341797
1819 2 0.49997 0.687611 0.341804
1813 2 0.500008 0.687496 0.227904
214 2 0.0625076 0.531259 0.341813
215 2 0.0208324 0.531262 0.379787
216 2 0.104063 0.531274 0.417819
217 2 0 0.5625 0
218 2 0.0833313 0.562498 0.0380229
219 2 0.0416625 0.562497 0.075997
220 2 0.0625 0.59375 0
221 2 0.0208307 0.593748 0.0380225
222 2 0.104166 0.593745 0.0759972
1533 2 0.416646 0.937518 0.417801
224 2 0.0833334 0.562495 0.151944
225 2 0.0416685 0.562496 0.189916
226 2 0.0624983 0.593745 0.11397
227 2 0.0208318 0.593746 0.151942
228 2 0.104172 0.593744 0.189917
229 2 6.45503e-06 0.562498 0.227888
230 2 0.083346 0.562501 0.265864
231 2 0.0416843 0.562506 0.303835
232 2 0.0625085 0.593747 0.227888
233 2 0.0208477 0.593751 0.26586
234 2 0.104177 0.59376 0.303836
1532 2 0.458307 0.937518 0.379775
236 2 0.0833055 0.562524 0.379788
237 2 0.0416184 0.562524 0.417813
238 2 0.0625064 0.593767 0.341808
239 2 0.0208338 0.593773 0.379783
240 2 0.104081 0.593791 0.417813
241 2 0 0.625 0
242 2 0.0833324 0.624997 0.0380223
243 2 0.0416646 0.624996 0.075996
244 2 0.0625 0.65625 0
245 2 0.0208319 0.656248 0.0380221
246 2 0.104167 0.656244 0.0759961
1531 2 0.374962 0.937512 0.341794
248 2 0.0833355 0.624993 0.151942
249 2 0.0416704 0.624995 0.189914
250 2 0.0625002 0.656244 0.113968
251 2 0.0208338 0.656245 0.15194
252 2 0.104173 0.656243 0.189914
253 2 7.30242e-06 0.624997 0.227886
254 2 0.083345 0.625002 0.26586
255 2 0.0416816 0.625009 0.303831
256 2 0.0625076 0.656247 0.227885
257 2 0.0208445 0.656252 0.265857
258 2 0.104172 0.656264 0.30383
1530 2 0.47914 0.96875 0.303825
260 2 0.0833073 0.625035 0.379782
261 2 0.0416302 0.625034 0.417809
262 2 0.0625016 0.656273 0.341804
263 2 0.0208334 0.65628 0.379781
264 2 0.104104 0.656298 0.417808
265 2 0 0.6875 0
266 2 0.0833333 0.687497 0.0380219
267 2 0.041666 0.687496 0.0759953
268 2 0.0625 0.71875 0
269 2 0.0208328 0.718748 0.0380219
270 2 0.104168 0.718744 0.0759953
1529 2 0.395806 0.96875 0.265848
272 2 0.0833361 0.687493 0.15194
273 2 0.0416699 0.687495 0.189912
274 2 0.0625008 0.718744 0.113967
275 2 0.0208339 0.718744 0.15194
276 2 0.104171 0.718743 0.189911
277 2 5.03576e-06 0.687498 0.227884
278 2 0.0833396 0.687503 0.265856
279 2 0.0416742 0.687512 0.303829
280 2 0.0625033 0.718747 0.227883
281 2 0.0208376 0.718753 0.265856
282 2 0.104163 0.718766 0.303827
1528 2 0.437481 0.96875 0.227879
284 2 0.0833094 0.687539 0.379779
285 2 0.0416427 0.687538 0.417807
286 2 0.062494 0.718775 0.341802
287 2 0.0208307 0.718782 0.379781
288 2 0.104126 0.718794 0.417806
289 2 0 0.75 0
290 2 0.0833338 0.749997 0.0380217
291 2 0.0416667 0.749996 0.075995
292 2 0.0625 0.78125 0
293 2 0.0208332 0.781248 0.0380218
294 2 0.104168 0.781244 0.075995
1527 2 0.416634 0.937508 0.303821
296 2 0.0833349 0.749993 0.151939
297 2 0.0416671 0.749995 0.189911
298 2 0.0625004 0.781244 0.113967
299 2 0.0208325 0.781245 0.15194
300 2 0.104166 0.781244 0.18991
301 2 3.46525e-07 0.749998 0.227884
302 2 0.0833312 0.750004 0.265855
303 2 0.0416642 0.750012 0.303829
304 2 0.0624972 0.781248 0.227883
305 2 0.0208295 0.781253 0.265857
306 2 0.104153 0.781265 0.303827
1526 2 0.458309 0.937503 0.265851
308 2 0.0833118 0.750036 0.379779
309 2 0.0416523 0.750035 0.417808
310 2 0.0624868 0.781273 0.341803
311 2 0.0208271 0.781278 0.379782
312 2 0.104141 0.781285 0.417806
313 2 0 0.8125 0
314 2 0.083334 0.812497 0.0380218
315 2 0.0416667 0.812496 0.075995
316 2 0.0625 0.84375 0
317 2 0.0208333 0.843749 0.0380218
318 2 0.104168 0.843746 0.0759947
1525 2 0.374979 0.937501 0.227876
320 2 0.0833324 0.812494 0.151939
321 2 0.0416634 0.812496 0.189911
322 2 0.0624994 0.843746 0.113967
323 2 0.0208308 0.843746 0.15194
324 2 0.104161 0.843746 0.18991
325 2 -4.86867e-06 0.812499 0.227885
326 2 0.0833226 0.812504 0.265855
327 2 0.0416552 0.812511 0.30383
328 2 0.0624912 0.843749 0.227883
329 2 0.0208226 0.843753 0.265857
330 2 0.104146 0.843762 0.303827
1524 2 0.479155 0.96875 0.18991
332 2 0.0833133 0.812528 0.379781
333 2 0.0416575 0.812527 0.417809
334 2 0.0624818 0.843767 0.341805