ITEM: TIMESTEP
36
ITEM: NUMBER OF ATOMS
3074
ITEM: BOX BOUNDS pp pp pp
0.0000000000000000e+00 3.8693948398131120e+01
0.0000000000000000e+00 4.4679925159782847e+01
0.0000000000000000e+00 6.0000000000000000e+01
ITEM: ATOMS id type x y z c_peratom[1] c_peratom[2] c_peratom[3] c_peratom[4] c_peratom[5] c_peratom[6]
1 2 0 0 0 -197397 -197422 46763.5 29.6187 -25.2417 61.9637
2 2 3.22452 2.39569e-05 2.2813 37052.1 37512.5 -53248.3 184.752 34.0017 204.671
1687 2 19.3472 16.7554 6.84074 38025.8 39626.2 26064.4 1090.24 279.004 6773.06
4 2 2.41837 1.39625 0 -197467 -197383 46682.6 95.1461 113.592 202.169
5 2 0.806134 1.39628 2.28131 37108.3 37138.1 -52788 199.401 -111.946 282.664
6 2 4.03064 1.39635 4.55967 39844.3 40516.4 -7946.37 609.285 -329.567 486.752
1675 2 19.3454 13.9572 20.5093 81013.7 64603.2 -52056 -14306.8 -43855.3 -49825.1
1663 2 19.3473 13.963 6.83962 37702.7 41080 11276.7 1061.61 904.046 5797.43
1651 2 19.3458 11.165 20.5082 57143.5 24699.5 -26317.7 -5704.38 -10768.5 -29880.6
10 2 2.41832 1.39636 6.83801 39938.1 40291.2 -6165.9 626.653 -736.164 315.784
11 2 0.805972 1.39633 9.11639 39664 39572 -5788.67 571.082 -1178.21 132.469
12 2 4.03028 1.39635 11.3946 38925.1 39014.5 -7108.39 834.171 -1827.69 -15.001
13 2 -0.000441413 3.25999e-06 13.6732 37665.2 37147.2 -5133.99 253.741 -1849.27 -189.189
14 2 3.22372 -5.17594e-05 15.9513 35290.8 33701.5 -5520 61.8513 -2451.93 -479.483
15 2 1.61146 -0.000117734 18.2299 32779.9 31174.1 -3726.88 -130.17 -1693.65 -594.81
16 2 2.41788 1.39627 13.673 37607.7 37032.1 -6177.68 541.701 -2102.54 -408.711
17 2 0.805538 1.39616 15.9515 35672.7 34887 -4795.75 236.506 -1882.51 -798.193
18 2 4.02967 1.39597 18.2297 32512.3 29801.1 -4508.28 -557.49 -2285.44 -1355.76
1344 2 18.525 20.9437 25.4272 -3.15811e+06 -4.05763e+06 1.53465e+06 -4.87208e-10 712417 2.4741e-08
20 2 3.22373 -0.00026738 22.787 25300.4 22662.8 -48320.3 -549.607 -343.507 -484.174
21 2 1.61199 -0.000264777 25.0687 -210338 -211754 49364.9 -168.904 223.779 -208.267
22 2 2.41756 1.39585 20.5084 29606.3 27804.9 -3953.31 -797.3 -1010.49 -1291.89
23 2 0.805684 1.39578 22.7872 24889.5 24378.5 -48273 -459.908 274.056 -966.124
24 2 4.03002 1.39568 25.0685 -209785 -212314 49247.7 -1263.48 -3.03991 -377.506
25 2 0 2.7925 0 -197386 -197439 46747.6 81.7983 -67.8102 173.852
26 2 3.22452 2.79257 2.28131 37151.4 37524.7 -53253.6 513.832 74.1928 637.5
27 2 1.61225 2.7926 4.5597 39859.6 39946.3 -7313.43 613.611 -308.68 485.371
28 2 2.41837 4.18874 0 -197455 -197391 46695.6 174.063 60.0352 371.531
29 2 0.806122 4.18881 2.28131 37135.4 36992.4 -52891.8 469.204 -124.995 512.475
30 2 4.03066 4.18894 4.55968 39962.1 40279 -7848.15 990.824 -170.48 842.281
31 2 -5.57179e-05 2.7926 6.83808 39927.8 39717.8 -5530.68 658.644 -749.411 289.728
32 2 3.22436 2.79267 9.1163 39787.3 39988.3 -6663.45 1135.71 -1096.87 371.3
33 2 1.612 2.79261 11.3947 39124.2 38910.6 -6174.47 1015.54 -1503.48 -15.6268
34 2 2.41835 4.18894 6.83802 40038.8 39996.8 -6189.18 1096.64 -553.689 595.907
35 2 0.806026 4.1889 9.11638 39885.6 39575.1 -5905.57 1082.04 -968.378 277.73
36 2 4.03041 4.18894 11.3946 39426.9 39272.1 -7105.56 1543.63 -1384.08 90.527
37 2 -0.000354242 2.79252 13.6731 38002.6 37564.6 -5289.09 809.359 -1641.92 -469.996
38 2 3.22384 2.79235 15.9513 35594.6 34404.3 -5863.47 232.159 -2262.98 -1323.23
39 2 1.61157 2.79216 18.2299 32795 31981.1 -4100.57 -297.55 -1563.81 -1696.69
40 2 2.41803 4.18879 13.673 38124.7 37618 -6340.04 1087.54 -1709.09 -684.208
41 2 0.805707 4.1886 15.9514 36118.2 35872.7 -5183.53 602.13 -1570.23 -1361.24
42 2 4.02983 4.18822 18.2296 32501.2 30852.4 -5143.35 -984.436 -2208.66 -2665.45
1343 2 15.3043 20.9437 22.7948 41822.6 196364 -263064 2.65528e-08 -138053 -5.29764e-09
44 2 3.22373 2.79171 22.7869 24160.4 22750.8 -48503.7 -1777.3 -315.497 -1490.71
45 2 1.61197 2.79172 25.0687 -211758 -211504 49232.5 -610.723 239.996 -560.879
46 2 2.41767 4.18799 20.5083 28741.4 28558.4 -4449.88 -1525.86 -1012.6 -2532.05
47 2 0.805763 4.18784 22.7871 23087.3 24809.4 -48631.2 -903.127 301.872 -1805.75
48 2 4.02989 4.18765 25.0685 -211468 -212208 49216.6 -2941.45 -60.0672 -740.671
49 2 0 5.58499 0 -197391 -197463 46686.9 128.029 -89.6407 273.532
50 2 3.22452 5.58511 2.28131 37165.7 37286.5 -53172.2 815.249 77.1268 928.393
51 2 1.61225 5.58515 4.5597 39914.2 39649.5 -7363.08 830.517 -227.075 711.117
52 2 2.41837 6.98124 0 -197472 -197434 46586.1 228.702 15.2597 482.165
53 2 0.80612 6.98132 2.28131 37144.4 36794.3 -53014.7 590.198 -173.058 660.953
54 2 4.03067 6.98149 4.5597 40074.9 39886.4 -7519.66 1260.68 26.8001 1070.18
1342 2 16.9307 20.9437 20.5381 71560.2 139051 328552 -6.3337e-09 158562 2.13886e-08
56 2 3.22446 5.58526 9.11632 40170.7 39897.2 -6589.63 1620.83 -711.221 595.179
57 2 1.61212 5.58517 11.3947 39623.6 39130.9 -6292.65 1441.54 -1064.35 23.2437
58 2 2.41839 6.98149 6.83802 40189.6 39664.5 -6072.58 1249.16 -265.278 790.597
59 2 0.806093 6.98146 9.11638 40143.7 39481.9 -5991.18 1250.92 -612.441 394.207
60 2 4.03059 6.98151 11.3946 40028.5 39503.4 -7041.98 2048.11 -712.871 289.477
61 2 -0.000188388 5.58504 13.6731 38503.3 38163.7 -5560.26 1188.36 -1163.18 -609.052
62 2 3.22408 5.5848 15.9513 36168.7 35696.1 -6361.14 566.39 -1835.09 -1912.73
63 2 1.6118 5.58451 18.2298 32834.4 33450.9 -4715.34 -266.791 -1277.49 -2538.53
64 2 2.41826 6.98132 13.673 38735.9 38389.1 -6581.38 1497.79 -1020.92 -667.076
65 2 0.805974 6.98109 15.9514 36676.3 37130.5 -5623.55 951.045 -929.582 -1577.62
66 2 4.03009 6.98055 18.2296 32610.9 32928.7 -5991.31 -1026.72 -2104.38 -3599.53
1341 2 16.0625 19.5361 25.075 -1.23737e+06 110867 -210439 -496648 -267964 -65419.5
68 2 3.22372 5.58373 22.7868 21949 23075.1 -48908.9 -3304.63 -574.712 -2533.68
69 2 1.61189 5.58377 25.0686 -214687 -210864 49121.8 -1602.78 147.797 -853.994
70 2 2.41786 6.98022 20.5082 27460.7 30204.4 -5213.57 -2016.75 -1112.93 -3567.08
71 2 0.805885 6.97999 22.7869 20026.6 25982.4 -49049.7 -1489.2 244.877 -2507.38
72 2 4.02961 6.97966 25.0684 -214444 -212051 49143.4 -5665.21 -319.226 -1149.09
73 2 0 8.37749 0 -197377 -197491 46659.1 158.964 -128.796 325.669
74 2 3.22451 8.37763 2.2813 37173.2 36920.3 -53075.4 899.127 94.1306 1094.51
75 2 1.61225 8.37767 4.5597 39977.6 39297.6 -7345.58 880.536 -167.468 818.052
76 2 2.41837 9.77373 0 -197446 -197473 46581.7 270.931 -82.68 555.15
77 2 0.806102 9.77383 2.28131 37168.1 36623.1 -53008.5 557.214 -237.243 755.623
78 2 4.03067 9.77401 4.55972 40199.4 39437.9 -6995.71 1231.37 167.221 1203.13
1340 2 17.7336 19.5437 22.8373 230821 678799 351945 -106372 29777.2 22307.6
80 2 3.22456 8.37781 9.11635 40459.1 39636 -6382.06 1748.59 -203.692 798.413
81 2 1.61226 8.37771 11.3947 40006.5 39300.1 -6350.9 1558.52 -423.895 163.875
82 2 2.4184 9.77401 6.83804 40293 39310 -5873.21 1133.39 11.774 910.431
83 2 0.806145 9.77398 9.11638 40163.9 39236.8 -5977.09 1065.15 -121.263 542.79
84 2 4.03077 9.77406 11.3947 40330.4 39521.7 -6645 2023.67 74.6958 556.997
85 2 1.34084e-05 8.37756 13.6731 38943.9 38874.7 -5908.38 1308.89 -379.623 -540.877
86 2 3.22441 8.37729 15.9513 36887.1 37363.3 -6689.24 1012.9 -1001.27 -1906.22
87 2 1.61215 8.37693 18.2297 32883.5 35540 -5343.9 135.482 -623.642 -2813.22
88 2 2.4185 9.77386 13.673 39162.3 39091 -6562.65 1508.43 -59.6407 -392.756
89 2 0.80629 9.7736 15.9514 36885.6 38475.2 -6022.78 1134.93 242.711 -1380.86
90 2 4.03046 9.77302 18.2296 33282.5 35858.1 -6457.13 -605.521 -1602.2 -3617.02
1339 2 14.5083 19.5464 20.5169 52737.3 93464 -18368.1 4490.23 7095.45 -26855.3
92 2 3.22366 8.37587 22.7868 18817.4 24466.6 -49461.2 -5228.94 -1353.82 -3538.08
93 2 1.61169 8.37594 25.0685 -219213 -209471 49120.1 -3791.86 -124.774 -1080.41
94 2 2.41814 9.7726 20.5081 26539.4 33088.6 -5804.45 -2068.12 -1136.73 -3955.82
95 2 0.806023 9.77232 22.7868 16634.8 28346 -49409.8 -2133.89 -19.2446 -2948.02
96 2 4.02905 9.77176 25.0684 -220219 -211363 49128.6 -10226.4 -994.064 -1546.03
97 2 0 11.17 0 -197316 -197521 46733.1 182.25 -223.201 351.442
98 2 3.2245 11.1701 2.28131 37400.8 36634.8 -52671.9 800.514 -5.63464 1124.1
99 2 1.61222 11.1702 4.55972 40123.2 38995.8 -7064.6 683.951 -134.891 803.641
100 2 2.41837 12.5662 0 -197352 -197472 46809.4 279.574 -196.998 546.442
101 2 0.806069 12.5663 2.28132 37445 36459.1 -52611.9 374.588 -417.684 745.67
102 2 4.03064 12.5665 4.55976 40399.7 38945.7 -6274.76 969.424 225.85 1208.5
1338 2 18.5423 20.9437 18.2562 47242.3 62291.6 322528 -2.06454e-08 43054.6 -9.65281e-09
104 2 3.2246 11.1703 9.11641 40469.2 39234.9 -5904.85 1346 358.423 938.148
105 2 1.61237 11.1702 11.3947 39979.6 39265.3 -6212.26 1149.58 365.126 368.533
106 2 2.41838 12.5665 6.83809 40441.5 38900.6 -5319.95 780.288 203.169 924.43
107 2 0.80614 12.5665 9.11643 40197.3 38963.9 -5672.27 520.469 309.793 638.603
108 2 4.03085 12.5665 11.3948 40072.3 39192.8 -5823.55 1427.12 949.963 874.602
109 2 0.000194854 11.1701 13.6731 38941 39419.7 -6190.61 1046.27 691.536 -334.273
110 2 3.22474 11.1698 15.9514 37218.9 38906.3 -6548.95 1056.55 242.451 -1298.98
111 2 1.61254 11.1695 18.2297 32720.2 37872.5 -5656.55 323.4 525.833 -2385.49
112 2 2.41867 12.5664 13.6731 38982.8 39394.7 -6220.45 984.52 1115.31 31.8789
113 2 0.806557 12.5661 15.9514 36513.4 39641.4 -6155.68 748.957 1702.17 -857.592
114 2 4.03081 12.5656 18.2298 34005.6 38784.4 -6126.06 -434.581 -475.541 -2557.39
1337 2 15.3171 20.9437 15.9613 34855.1 38635.6 65418.5 -2.02191e-08 30001.5 -7.79533e-09
116 2 3.22357 11.1682 22.7868 16100.2 27643.9 -49871.3 -6683.46 -2507.34 -4174.1
117 2 1.61132 11.1683 25.0684 -224988 -207107 49119.7 -6515.51 -689.282 -1191.21
118 2 2.41843 12.5652 20.5082 26555.2 36677.8 -5916.36 -1953.6 -755.423 -3372.83
119 2 0.806126 12.5649 22.7868 14712.8 31670.5 -49516.7 -2688.42 -403.466 -2782.42
120 2 4.02821 12.5641 25.0685 -229464 -208948 49128.5 -14785.7 -2225.37 -1746.59
121 2 0 13.9625 0 -197178 -197551 46991.4 201.966 -402.102 368.24
122 2 3.22446 13.9626 2.28134 37670.7 36389.8 -51909.8 553.324 -204.024 1018.8
123 2 1.61217 13.9627 4.55976 40366.7 38607.1 -6490.77 362.272 -238.101 761.398
124 2 2.41837 15.3587 0 -197163 -197439 47282 252.465 -380.82 475.652
125 2 0.806021 15.3588 2.28135 37972 36132 -51801.6 168.481 -754.571 654.769
126 2 4.03059 15.3589 4.55983 40669.8 38363.1 -5220.53 536.605 93.1064 1003.78
1336 2 16.9295 20.9437 13.6831 34991 38389.8 89164.4 -3.13031e-08 20249.5 -1.74132e-08
128 2 3.22458 13.9628 9.11652 40367 38699 -5032.6 757.903 764.509 1008.25
129 2 1.61239 13.9627 11.3948 39825.9 38981 -5685.15 414.905 1067.37 562.926
130 2 2.41831 15.3589 6.83818 40674 38289.8 -4443.79 275.924 161.001 809.963
131 2 0.806065 15.3589 9.11653 40551.6 38537.5 -5038.2 -50.6616 418.74 644.039
132 2 4.03083 15.359 11.395 39603.8 38658.7 -4516.68 625.946 1602.85 980.69
133 2 0.000282559 13.9626 13.6731 38762.6 39672.1 -6169.49 226.805 1780.79 -1.65125
134 2 3.22495 13.9624 15.9516 36819.5 39952.3 -5708.59 484.763 1684.26 -439.05
135 2 1.61283 13.9621 18.2299 32402.7 39821.8 -5363.58 -73.6617 1841.04 -1446.36
136 2 2.4187 15.3588 13.6733 38482.6 39428.5 -5304.8 215.579 2104.76 397.834
137 2 0.806681 15.3587 15.9516 36083.5 40306.2 -5748.9 -93.2221 2867.35 -234.024
138 2 4.03101 15.3583 18.2302 34126.1 41107.3 -4818.8 -699.225 1076.36 -1133.65
1335 2 16.1238 19.5493 18.2447 44111.1 59862.8 116585 19962.7 57444.2 50567.7
140 2 3.22349 13.9609 22.7869 15699.7 32311 -49963.6 -6558.72 -3366.05 -3888.48
141 2 1.61084 13.961 25.0686 -230592 -203955 49111.9 -7949.98 -1468.81 -1006.41
142 2 2.41862 15.358 20.5085 27390.6 39877.7 -5442.24 -1826.84 -72.6662 -2076.95
143 2 0.806141 15.3577 22.787 14989.1 34872.3 -49494.2 -2835.26 -785.334 -1927.92
144 2 4.0273 15.3569 25.0688 -239552 -204411 49141 -15064.9 -3645.97 -1514.93
145 2 0 16.755 0 -196934 -197567 47487.2 167.448 -711.308 282.825
146 2 3.22442 16.7551 2.28138 38033.3 36054.2 -50837.1 289.791 -535.349 728.773
147 2 1.61209 16.7551 4.55982 40845.5 38098.1 -5565.4 20.7082 -550.005 542.335
148 2 2.41837 18.1512 0 -196962 -197425 47725 144.036 -611.043 254.23
149 2 0.805969 18.1513 2.28138 38465.5 35762.9 -50799.9 35.8064 -1177.6 393.771
150 2 4.03053 18.1513 4.5599 40905.8 37929.2 -4106.12 177.342 -162.975 525.86
1334 2 17.736 19.5487 15.9662 37168.1 46447.5 146622 8071.8 29559.3 35643.9
152 2 3.2245 16.7552 9.11666 40392.8 38074.8 -3838.83 200.383 853.61 820.551
153 2 1.61232 16.7551 11.395 39978.8 38654.3 -4740.11 -181.07 1359.08 586.434
154 2 2.41822 18.1513 6.83828 41098.5 37853.6 -3503.53 -36.0818 -89.7664 483.641
155 2 0.805956 18.1513 9.11665 41222.1 38139.7 -4057.7 -312.459 200.59 437.995
156 2 4.03075 18.1514 11.3952 39191.2 38277.1 -3081.86 116.678 1967.37 697.352
157 2 0.000249771 16.7551 13.6733 39111.5 39666.1 -5515.6 -450.884 2227.96 285.624
158 2 3.22499 16.7549 15.9519 36071.6 40537.7 -4349.28 -218.271 2844.72 120.223
159 2 1.61293 16.7547 18.2301 32289.5 41067.4 -4625.44 -640.963 2800.49 -550.165
160 2 2.41865 18.1513 13.6735 38193.5 39341.7 -4163.8 -213.399 2571.88 403.428
161 2 0.80666 18.1512 15.9518 36200.9 40498.4 -4866.23 -491.603 3302.62 57.3283
162 2 4.03104 18.151 18.2305 33506.9 42432.7 -3424.11 -725.135 2442.61 -264.774
1333 2 14.5109 19.5481 13.6793 36441.7 38021.4 37595.1 3572.92 17087.4 7488.1
164 2 3.22342 16.7539 22.7873 17273.5 36838.7 -49849.4 -4663.11 -3593.77 -2612.71
165 2 1.61038 16.7539 25.0688 -234723 -200862 49132.6 -6496.86 -2141.93 -632.208
166 2 2.41867 18.1508 20.5088 28130.6 41878.9 -4850.47 -1327.31 582.565 -865.997
167 2 0.806087 18.1507 22.7872 16370.6 36992 -49363.9 -1951.68 -1063.92 -864.79
168 2 4.02661 18.1501 25.0691 -246736 -199742 49163.1 -9357.98 -4578.13 -874.175
169 2 0 19.5475 0 -196713 -197567 47943.6 68.8694 -972.297 111.403
170 2 3.22438 19.5475 2.28139 38233.7 35689.3 -50011 96.0728 -776.084 252.537
171 2 1.61203 19.5475 4.55987 41341.9 37837.6 -4697.9 -59.4595 -853.024 214.41
172 2 2.41837 20.9437 0 -196890 -197440 47844.6 -7.42419e-09 -713.312 -5.47197e-09
173 2 0.805952 20.9437 2.28139 38678 35630.4 -50290.1 4.39705e-08 -1362.26 2.97501e-08
174 2 4.03049 20.9437 4.55993 41006.4 37833.2 -3573.43 -1.62725e-08 -274.24 -6.90703e-09
1332 2 18.5412 20.9437 11.4026 36070.5 36766.6 72213.9 -3.53226e-09 3294.15 -3.3526e-08
176 2 3.22442 19.5475 9.11677 40531.5 37834.7 -2915.49 -12.1584 821.234 321.497
177 2 1.61224 19.5475 11.3951 40279.9 38498.8 -3933.01 -201.762 1310.37 279.532
178 2 2.41818 20.9437 6.83832 41359.2 37770.6 -2995.51 3.11813e-08 -221.529 -5.24043e-09
179 2 0.805904 20.9437 9.11671 41643.7 38029.7 -3531.6 -9.25695e-09 52.6516 3.41046e-08
180 2 4.0307 20.9437 11.3953 39047.2 38211.6 -2357.04 -7.98469e-09 2092.5 1.80557e-08
1331 2 15.3169 20.9437 9.12062 37234.8 37500.1 35820.1 -1.21802e-09 8671.54 -4.50667e-09
182 2 3.22495 19.5475 15.9521 35554.5 40678.5 -3350.34 -221.491 3478.97 141.129
183 2 1.61292 19.5474 18.2303 32370.9 41625.1 -3945.07 -415.037 3183.77 -99.9597
184 2 2.41861 20.9437 13.6736 38135.7 39269.3 -3648.2 -2.19244e-08 2663.72 -1.45681e-08
185 2 0.806626 20.9437 15.9519 36373.4 40485.5 -4396.79 -1.09622e-09 3309.38 -3.89766e-09
186 2 4.03102 20.9437 18.2307 33109.1 42825.7 -2881.71 7.93568e-09 3018.44 -1.66822e-08
1330 2 16.9289 20.9437 6.84147 38011.2 38130.1 36323.9 -9.92876e-09 3946.76 2.09983e-08
188 2 3.22337 19.5471 22.7875 18663.9 39487.8 -49787.9 -1711.87 -3445.3 -895.345
189 2 1.61011 19.5471 25.069 -236765 -198779 49236.6 -2486.44 -2480.56 -202.948
190 2 2.41866 20.9437 20.5089 28374.9 42539.3 -4604.69 -6.86963e-08 869.18 -1.66744e-08
191 2 0.806052 20.9437 22.7873 17123.1 37726.6 -49276.6 1.33982e-08 -1183.72 -2.38732e-08
192 2 4.02636 20.9437 25.0693 -249276 -197804 49141.3 9.65417e-09 -4835.61 8.96149e-09
385 2 4.83674 0 0 -197538 -197435 46434.9 68.051 148.433 139.793
386 2 8.06128 4.39959e-05 2.28127 36684.8 38087.9 -54191.7 312.142 226.321 383.9
387 2 6.44901 6.60477e-05 4.55964 39613.2 41029.2 -8509.86 377.325 -235.658 345.152
388 2 7.25512 1.39625 0 -197618 -197414 46314.3 189.074 277.863 400.501
389 2 5.64291 1.39632 2.28129 36933.2 37846.5 -53701.2 483.384 179.218 584.29
390 2 8.8674 1.3964 4.55962 39485.3 41477.3 -8741.52 760.899 -70.4114 758.025
391 2 4.83668 7.48062e-05 6.83795 39861.6 40906 -7088.39 373.621 -797.232 231.113
392 2 8.061 9.5821e-05 9.11613 39435.1 41089.7 -8329.48 484.935 -1259.44 246.888
393 2 6.44856 6.35832e-05 11.3944 38830.9 39266.9 -8017.94 449.501 -1978.05 29.1851
394 2 7.25506 1.39643 6.83791 39791.2 41482.2 -7574.65 882.246 -580.59 651.762
395 2 5.64269 1.39641 9.11621 39586.5 40565.7 -7551.57 924.324 -1217.03 384.148
396 2 8.86693 1.39639 11.3944 38960.7 39663.2 -8885.01 885.693 -1850.62 100.967
397 2 4.83611 9.82545e-06 13.6728 37464.9 36549.9 -7129.59 276.676 -2508.87 -253.236
398 2 8.0602 -9.1276e-05 15.951 35703 31678.2 -7433.01 -105.05 -3301.65 -634.322
399 2 6.44781 -0.000182393 18.2295 32669.6 27642.7 -5106.82 -502.827 -2892.38 -806.154
400 2 7.25445 1.39627 13.6727 37713.2 36640.7 -8146.63 573.289 -2580.79 -498.835
401 2 5.642 1.39611 15.9511 35460.2 32986.9 -6608.57 -18.7071 -2862.33 -1064.01
402 2 8.86606 1.39579 18.2293 33225.1 26004.6 -6078.52 -1347.79 -3500.81 -1953.37
403 2 4.83565 -0.000241394 20.5082 29719.5 25426.3 -4201.65 -680.38 -1677.29 -715.89
1645 2 19.3473 11.1701 13.6742 38344.9 43352 -5217.48 2136.26 766.484 3407.18
1627 2 19.3459 8.3736 20.508 49046 17594.2 -15519.6 -3752.55 -5411.59 -18481.8
406 2 7.2538 1.39564 20.508 29821.1 22798.9 -4813.71 -1936.49 -2369.41 -1699.93
407 2 5.64181 1.39562 22.7868 25245.4 20349.4 -48578.2 -1825.99 -872.684 -1018.22
408 2 8.8663 1.39543 25.0682 -207090 -216841 49175.6 -2760.09 -455.162 -396.998
409 2 4.83674 2.7925 0 -197523 -197392 46565.5 209.382 155.388 451.131
410 2 8.0613 2.79263 2.28129 36881.7 38245.2 -53758 817.725 390.789 1090.23
411 2 6.44904 2.79269 4.55965 39818.9 41033.1 -8222.22 1025.54 -56.0783 975.096
412 2 7.25512 4.18874 0 -197579 -197305 46636.9 355.912 311.716 757.342
413 2 5.64292 4.18888 2.2813 37128.5 37786.6 -53379.2 922.255 261.726 1116.34
414 2 8.86745 4.18904 4.55967 39763.9 41570 -8003.51 1393.29 254.333 1435.52
415 2 4.83672 2.7927 6.83796 40020.1 40677.2 -6867.51 1175.38 -622.272 723.622
416 2 8.06109 2.79277 9.11618 39630.4 41213.6 -8049.26 1482.46 -912.739 734.881
417 2 6.44867 2.79269 11.3945 39138.9 39562.6 -7961.61 1396.91 -1623.05 151.369
418 2 7.25515 4.18908 6.83796 40084.9 41353.2 -6970.67 1720.72 -216.259 1227.06
419 2 5.64279 4.18904 9.11625 40018.3 40548.7 -7264.46 1813.52 -812.292 780.533
420 2 8.86712 4.18903 11.3945 39368.1 40514.2 -8571.83 1926.17 -1318.62 372.851
421 2 4.83624 2.79253 13.6728 37858.9 37136.6 -7248.08 897.468 -2237.69 -640.775
422 2 8.06032 2.79225 15.951 35923 32754.9 -7824.41 -212.967 -3186.19 -1868.67
423 2 6.4479 2.79197 18.2295 32598.3 28395.1 -5562.7 -1336.38 -2936.48 -2429.06
424 2 7.25465 4.18881 13.6728 38254.1 37728.4 -8296.8 1337.69 -2153.27 -827.771
425 2 5.64219 4.18851 15.9511 35896.5 34221 -7116.95 183.892 -2591.72 -2019.18
426 2 8.86617 4.18789 18.2294 33317.9 27562.9 -6890.31 -2413.32 -3738.32 -3946.07
427 2 4.83569 2.79178 20.5081 29137 25661.8 -4561.37 -2023.75 -1766.35 -2233.04
428 2 8.05989 2.79133 22.7866 25471.5 17177.1 -48809.7 -3910.66 -1569.39 -1898.73
429 2 6.44804 2.79151 25.0683 -208979 -214094 49243.9 -3211.11 -257.572 -577.066
430 2 7.25381 4.18757 20.5079 29232 23298.7 -5399.04 -3893.01 -2767.13 -3667.17
431 2 5.64174 4.18749 22.7867 23857.8 20154.9 -48787 -3978.51 -1113.34 -2314.4
432 2 8.86607 4.18712 25.0682 -207824 -217304 49242.6 -5979.59 -583.107 -959.183
433 2 4.83674 5.58499 0 -197532 -197358 46630 301.618 160.821 640.15
434 2 8.06132 5.5852 2.28131 37120.4 38183 -52884 1289.94 579.049 1718.32
435 2 6.44907 5.58529 4.55969 40090.5 40786.1 -7664.53 1509.66 205.058 1417.96
436 2 7.25512 6.98124 0 -197560 -197187 46955.8 479.578 352.836 1018.84
437 2 5.64292 6.98142 2.28131 37244.6 37492.7 -52932.2 1175.04 335.904 1458.43
438 2 8.86751 6.98166 4.55974 40089.1 41293.2 -6826.33 1959.01 666.536 2085.5
439 2 4.83678 5.5853 6.83799 40304.6 40385.6 -6591.66 1671.5 -259.718 1047.07
440 2 8.06126 5.58544 9.11628 40163.2 41465.3 -7349.13 2489.06 -317.137 1332.64
441 2 6.44888 5.5853 11.3946 39793.5 40059.5 -7720.66 2273.72 -1003.47 392.884
442 2 7.25525 6.9817 6.83804 40482.1 41093.9 -6162.27 2308.35 305.554 1716.01
443 2 5.64293 6.98164 9.11632 40525.1 40447 -6790.54 2346.97 -215.833 1154.31
444 2 8.86739 6.9817 11.3946 40226.5 41612.7 -7852.27 3177.46 -349.037 1071.66
445 2 4.83647 5.58508 13.6729 38506.5 37977 -7476.14 1569.3 -1653.4 -807.21
446 2 8.06059 5.58466 15.9511 36673.5 34928.4 -8468.23 252.923 -2904.81 -2797.13
447 2 6.44809 5.58419 18.2295 32774.2 30165.3 -6504.12 -1891.43 -3071.57 -4002.86
448 2 7.25496 6.98139 13.6729 39253.4 39236.9 -8337.36 2333.93 -1349.15 -725.03
449 2 5.6425 6.98098 15.9512 36722.7 36134.3 -7738.73 711.037 -2123.57 -2491.9
450 2 8.86638 6.98013 18.2294 34009.6 30447.8 -8288.54 -2816.1 -4120.9 -5686.34
451 2 4.83577 5.58386 20.5081 28146.5 26636.6 -5332 -3376.28 -2112.08 -3846.49
452 2 8.05969 5.58306 22.7866 24189.1 16635.5 -49233.9 -7105.56 -2171.4 -3611.9
453 2 6.44776 5.58337 25.0683 -210595 -214501 49209.5 -6173.84 -449.681 -1099.11
454 2 7.25383 6.97958 20.5079 28536.3 24698.3 -6673.25 -5830.31 -3671.4 -5804.8
455 2 5.64157 6.97942 22.7867 21575.6 20280 -49419.2 -6798.97 -1889.21 -3802.22
456 2 8.8656 6.97879 25.0681 -208964 -218742 49213.5 -10438.5 -897.436 -1721.99
457 2 4.83674 8.37749 0 -197539 -197322 46711.7 372.026 163.834 780.786
458 2 8.06134 8.37774 2.28135 37419.4 37945.1 -51769.3 1591.22 762.842 2107.33
459 2 6.44911 8.37785 4.55973 40299.1 40262.3 -6832.3 1753.5 485.718 1726.83
460 2 7.25512 9.77373 0 -197506 -197050 47407.6 536.792 373.479 1119.05
461 2 5.64292 9.77393 2.28133 37433.3 37224.6 -52318.3 1243.93 374.11 1614.63
462 2 8.86756 9.77421 4.55985 40403.7 40698 -5144.3 2240.45 1085.23 2478.26
463 2 4.83684 8.37785 6.83804 40574.1 40015.9 -6083.29 1812.56 128.249 1291
464 2 8.06145 8.37806 9.11643 40767.5 41390.7 -6240.99 3183.96 563.344 2016.54
465 2 6.44912 8.3779 11.3947 40550.1 40384.5 -7183.76 2930.78 -101.475 866.568
466 2 7.25532 9.77425 6.83814 40759 40439.2 -5068.64 2420.48 836.47 2064.67
467 2 5.64305 9.77419 9.11641 40751.4 39999.5 -6136.32 2341.57 439.127 1436.77
468 2 8.86768 9.77435 11.3949 41264.5 41936.6 -6440.09 4158.49 1034.07 2154.54
469 2 4.83676 8.37763 13.6729 39368.1 38925 -7404.72 2081.65 -746.71 -538.873
470 2 8.06097 8.3772 15.9512 38133.4 37880.7 -9127.64 1285.29 -2259.73 -2959.06
471 2 6.44838 8.37655 18.2295 33451.5 33174.8 -7762.11 -1860.14 -3241.79 -5017.13
472 2 7.25531 9.77399 13.673 40510.1 40404.8 -7757.81 3211.75 -102.075 30.6415
473 2 5.64288 9.77352 15.9513 38019.5 38317.5 -7813.55 1414.25 -1169.79 -2078.05
474 2 8.86671 9.77256 18.2296 35804.5 34926.2 -10241.5 -2233.17 -4468.13 -6737.03
475 2 4.8359 8.37606 20.508 27083.7 29040.5 -6434.26 -4487.6 -2853.01 -5212.37
476 2 8.05932 8.37483 22.7865 22190.5 15972.5 -50269.2 -11502.9 -3606.47 -5919.75
477 2 6.4472 8.37524 25.0682 -213717 -215504 49159.5 -11023.1 -949.281 -1784.82
478 2 7.25386 9.77177 20.5079 28090.9 28085.5 -8718.36 -7548.76 -5311.63 -7889.64
479 2 5.64125 9.77148 22.7866 18004.6 21784.4 -50396.1 -10482.3 -3660.17 -5506.87
480 2 8.86468 9.7704 25.0682 -211475 -222094 49224.9 -18304.4 -1684.44 -2973.09
481 2 4.83674 11.17 0 -197468 -197261 47010.3 399.903 113.844 817.407
482 2 8.06134 11.1702 2.28139 37730.7 37675.5 -50317.5 1600.47 850.999 2208.02
483 2 6.44911 11.1703 4.5598 40504 39631.3 -5769.91 1655.68 603.511 1812.41
484 2 7.25512 12.5662 0 -197373 -196905 48032.6 540.279 320.693 1112.58
485 2 5.6429 12.5664 2.28136 37712 36928.6 -51336.4 1075.54 312.971 1559.11
486 2 8.86757 12.5667 4.55997 40722.2 39918.4 -3076.5 2110.79 1271.84 2518.98
487 2 4.83686 11.1704 6.83811 40672.2 39409.8 -5335.49 1570.04 436.463 1381.15
488 2 8.06157 11.1706 9.11663 40977.3 40504.2 -4743.29 3119.97 1395.3 2475.48
489 2 6.44929 11.1704 11.3948 40704.9 39998.2 -6178.5 2755.94 878.505 1372.58
490 2 7.25533 12.5667 6.83829 40776 39367 -3582.29 2054.61 1139.26 2123.94
491 2 5.64308 12.5667 9.11655 40605.5 39210.1 -5049.52 1818.06 967.479 1611.05
492 2 8.86784 12.5669 11.3952 41296.5 40838.6 -4357.02 3893.39 2236.11 2863.22
493 2 4.83701 11.1702 13.6731 39640.7 39548.2 -6783.67 1965.32 413.398 60.0906
494 2 8.06141 11.1698 15.9515 40379.2 40498.5 -8742.23 2608.39 -890.661 -1783.96
495 2 6.44877 11.1691 18.2297 35445.5 37145.4 -8164.2 -1036.77 -2859.37 -4603.95
496 2 7.25553 12.5665 13.6734 40622.2 40445.9 -6263.74 2852.98 1248.07 1009.26
497 2 5.64319 12.5661 15.9515 38523.4 39916.4 -6821.16 1274.85 255.054 -912.404
498 2 8.86717 12.5653 18.23 40104.9 40375.1 -10522.5 -81.1318 -3601.47 -5466.38
499 2 4.8361 11.1685 20.5081 27430.9 33278.6 -7113.39 -4548.48 -3530.34 -5555.75
500 2 8.05865 11.1667 22.7866 17326.8 17428.3 -52595.9 -18044.4 -7174.8 -9362.23
501 2 6.4461 11.1672 25.0683 -223084 -216027 49197.7 -19945.9 -2284.78 -2571.02
502 2 7.25402 12.5643 20.5082 30583.2 34642.3 -9777.83 -7019.41 -6608.54 -8308.95
503 2 5.6409 12.5639 22.7868 15348.3 26643.1 -51168.3 -12559.1 -6056.73 -6843.5
504 2 8.86261 12.5619 25.0684 -228877 -225145 49077.5 -37155.7 -4384.77 -4710.09
505 2 4.83674 13.9625 0 -197323 -197207 47463.7 367.534 -19.9161 725.237
506 2 8.06133 13.9627 2.28145 38059.3 37245.8 -48560 1314.84 783.708 1986.32
507 2 6.44909 13.9628 4.55988 40650.4 38925 -4421.39 1231.99 611.028 1609.8
508 2 7.25512 15.3587 0 -197178 -196767 48766.2 440.582 197.451 886.433
509 2 5.64287 15.3589 2.2814 38016.8 36558.7 -50102.5 733.105 103.381 1250.96
510 2 8.86754 15.3591 4.56011 40711.5 38922.8 -919.508 1518.06 1280.61 2099.44
511 2 4.83682 13.9628 6.83821 40648.4 38601.9 -4204.55 1057.01 579.379 1360.54
512 2 8.06157 13.963 9.11689 40622 39099.9 -2578.84 2400.16 2006.14 2553.87
513 2 6.44933 13.9629 11.3951 40116.8 39132.8 -4368.12 1895.47 1813.56 1735.05
514 2 7.25528 15.3591 6.83846 40520.6 38288.1 -1725.83 1378.52 1273.82 1805.92
515 2 5.64303 15.3591 9.11674 40201.9 38243.1 -3451 1048.32 1314.12 1494.84
516 2 8.86781 15.3593 11.3957 39994 39111.7 -1217.49 2602.16 3252.82 3036.77
517 2 4.83712 13.9627 13.6733 39055.7 39595.1 -5390.04 1202.84 1652.85 687.578
518 2 8.06167 13.9625 15.952 40579.1 41600.5 -6571.12 2066.46 967.602 80.1905
519 2 6.44908 13.9618 18.2301 36903.1 40893.9 -6708.05 -849.077 -1337.56 -2597.22
520 2 7.25556 15.359 13.6738 39211.5 39779.4 -3479.19 1656.16 2741.14 1752.96
521 2 5.64331 15.3587 15.952 37685.9 40783.6 -4621.3 481.94 2050.42 277.942
522 2 8.86742 15.3581 18.2308 41217.2 44626.5 -7094.16 -481.377 -863.678 -1792.73
523 2 4.83632 13.9612 20.5084 29282.1 38482.9 -6682.14 -3878.17 -3137.64 -4320.3
524 2 8.05796 13.9591 22.787 14589.2 26290.1 -54179.3 -20725.3 -11754.5 -12146.8
525 2 6.44447 13.9594 25.0686 -241065 -212421 49128.2 -28379.9 -4901.47 -3011.39
526 2 7.25422 15.3572 20.5089 34206.7 42846.3 -8045.56 -5374.9 -5218.53 -5461.53
527 2 5.64067 15.3568 22.7872 16597 34696.7 -51135.7 -10616.8 -7199.56 -6191.4
528 2 8.85941 15.354 25.0691 -267299 -217525 49090 -54362.5 -10220.9 -5441.95
529 2 4.83674 16.755 0 -197118 -197164 47994.9 268.113 -234.672 518.394
530 2 8.0613 16.7551 2.2815 38311.2 36770.5 -46824.3 831.269 608.839 1399.32
531 2 6.44903 16.7552 4.55997 40714.6 38208.8 -2877 685.514 525.726 1131.64
532 2 7.25512 18.1512 0 -196997 -196664 49372.9 254.764 72.7362 510.709
533 2 5.64283 18.1513 2.28143 38317 36093.7 -48954.4 338.748 -171.822 712.222
534 2 8.86748 18.1514 4.56023 40636.1 38066.4 968.363 748.28 1184.89 1235.22
535 2 4.83675 16.7552 6.83834 40708 37874.5 -2888.88 501.792 526.033 1047.43
536 2 8.06148 16.7554 9.11717 39808 37821.2 -38.4121 1397.6 2417.82 2064.9
537 2 6.44926 16.7553 11.3954 39025.1 38247.9 -2091.41 943.839 2527.13 1558.4
538 2 7.25521 18.1514 6.83861 40224.4 37474 38.0263 649.001 1314.57 1087.8
539 2 5.64295 18.1514 9.11692 39853.2 37505.6 -1836.19 410.176 1481.3 948.897
540 2 8.86767 18.1515 11.3961 38281.6 37643 2286.65 1193.78 4074.88 2154.36
541 2 4.83709 16.7551 13.6736 37969 39308.3 -3484.49 382.169 2675.65 878.291
542 2 8.06166 16.755 15.9527 38193.2 41874.3 -2336.43 751.728 3480.27 1545.11
543 2 6.44919 16.7546 18.2307 36301.4 43610.5 -3779.2 -959.849 1274.01 -467.575
544 2 7.25545 18.1514 13.6742 37216.1 39106.2 -315.732 616.021 4014.65 1450.11
545 2 5.64326 18.1512 15.9524 36041.6 41156.1 -2297.99 -91.8925 3599.84 595.032
546 2 8.86738 18.1509 18.2318 38125.3 47646.5 -896.314 -1024.12 3649.42 923.345
547 2 4.83645 16.7542 20.5089 30907.5 42938.2 -5428.79 -2712.47 -1632.24 -2246.76
548 2 8.05762 16.7525 22.7878 19439.9 41677.6 -52993.4 -15090.5 -12180.4 -9815.8
549 2 6.44287 16.7525 25.0692 -259631 -203515 49070.4 -25510.5 -7347.81 -2477.41
550 2 7.25432 18.1504 20.5097 35770.8 49313.5 -4972.17 -2931.44 -1689.43 -1895.68
551 2 5.64059 18.1501 22.7878 20129.5 42002.2 -50736.7 -5589.65 -6602.12 -3517.73
552 2 8.85663 18.148 25.0702 -302220 -198075 49229.2 -40445.7 -14459.1 -3667.72
553 2 4.83674 19.5475 0 -196995 -197161 48265.9 98.9621 -399.063 191.643
554 2 8.06127 19.5475 2.28154 38420.2 36416 -45642.3 271.908 424.288 520.985
555 2 6.44898 19.5475 4.56004 40807.9 37711.2 -1841.28 203.036 397.871 399.823
556 2 7.25512 20.9437 0 -196915 -196622 49624.1 -6.36415e-09 9.17555 -1.16321e-08
557 2 5.64282 20.9437 2.28144 38427 35800.4 -48484.7 -9.37905e-09 -309.011 -9.25666e-09
558 2 8.86746 20.9437 4.56028 40622.7 37722.4 1772.93 -9.86591e-09 1114.35 1.26674e-08
559 2 4.83669 19.5475 6.83842 40802 37557.2 -1919.53 128.961 468.347 382.422
560 2 8.0614 19.5476 9.11737 39180.5 37023.2 1834.22 448.503 2600.48 822.552
561 2 6.44917 19.5476 11.3956 38255.2 37767.8 -336.247 246.568 2941.51 630.493
562 2 7.25517 20.9437 6.83867 40161.2 37156.2 751.195 2.43598e-08 1308.65 2.87721e-14
563 2 5.6429 20.9437 9.117 39741.1 37286.7 -1115.36 2.1185e-08 1538.9 2.91944e-09
564 2 8.8676 20.9437 11.3963 37501.1 37068.6 3875.04 3.16694e-09 4405.37 -3.64188e-08
565 2 4.83702 19.5475 13.6738 37135.2 39170.9 -1982.45 16.0155 3313.43 399.223
566 2 8.06154 19.5475 15.9532 35369.7 41863.4 1367.61 76.049 5519.25 912.247
567 2 6.44915 19.5473 18.2312 34664.8 44906.7 -1499.82 -538.761 3326.23 125.299