ITEM: TIMESTEP
0
ITEM: NUMBER OF ATOMS
3074
ITEM: BOX BOUNDS pp pp pp
0.0000000000000000e+00 3.8693948398131120e+01
0.0000000000000000e+00 4.4679925159782847e+01
0.0000000000000000e+00 6.0000000000000000e+01
ITEM: ATOMS id type x y z v_stress_xx v_stress_yy v_stress_zz v_stress_xy v_stress_xz v_stress_yz
1 2 0 0 0 2596.05 2596.03 -99.025 -1.16049e-09 -0.00342799 -1.65163e-06
2 2 3.2245 0 2.279 -1940.76 -1940.9 5336.46 2.42702e-06 -0.0237689 2.45627e-06
3 2 1.61225 0 4.55799 -2804.09 -2804.23 -877.784 1.04705e-06 -0.0237668 6.46926e-06
4 2 2.41837 1.39625 0 2596.05 2596.03 -99.025 1.79831e-06 -0.0034265 -1.95088e-06
5 2 0.806124 1.39625 2.279 -1940.76 -1940.9 5336.46 1.36304e-06 -0.0237744 4.57624e-06
6 2 4.03062 1.39625 4.55799 -2804.09 -2804.23 -877.784 4.63834e-07 -0.0237673 2.25374e-06
7 2 0 0 6.83699 -2812.34 -2812.49 -1020.97 -7.01971e-08 -0.0353468 1.63862e-06
8 2 3.2245 0 9.11598 -2812.36 -2812.5 -1021.14 -3.04742e-06 -0.0237849 -1.28801e-06
9 2 1.61225 0 11.395 -2812.36 -2812.5 -1021.14 2.23936e-06 -0.0237777 1.6784e-06
10 2 2.41837 1.39625 6.83699 -2812.34 -2812.49 -1020.97 -6.45498e-06 -0.0353516 -3.10135e-06
11 2 0.806124 1.39625 9.11598 -2812.36 -2812.5 -1021.14 -2.27854e-06 -0.0237774 -7.07976e-06
12 2 4.03062 1.39625 11.395 -2812.36 -2812.5 -1021.14 1.38195e-05 -0.0237685 1.88045e-05
13 2 0 0 13.674 -2812.34 -2812.49 -1021.06 2.22668e-07 -0.0353465 8.48529e-06
14 2 3.2245 0 15.953 -2812.36 -2812.5 -1021.14 3.91055e-06 -0.0237678 2.92075e-06
15 2 1.61225 0 18.232 -2812.36 -2812.5 -1021.04 -8.90331e-07 -0.0237753 1.33057e-06
16 2 2.41837 1.39625 13.674 -2812.34 -2812.49 -1021.06 1.55542e-05 -0.0353372 1.94831e-05
17 2 0.806124 1.39625 15.953 -2812.36 -2812.5 -1021.14 3.56206e-06 -0.0237744 1.73342e-05
18 2 4.03062 1.39625 18.232 -2812.36 -2812.5 -1021.04 -3.42721e-05 -0.0237917 -2.18258e-05
19 2 0 0 20.511 -2804.07 -2804.22 -877.709 -4.62652e-07 -0.0353465 -3.32351e-06
20 2 3.2245 0 22.79 -1940.76 -1940.9 5336.46 -1.15592e-05 -0.0237844 -3.15153e-06
21 2 1.61225 0 25.069 1828.61 1828.6 -69.7618 -3.19521e-06 -0.000833922 -8.16229e-07
22 2 2.41837 1.39625 20.511 -2804.07 -2804.22 -877.709 -3.12896e-05 -0.0353611 -1.66471e-05
23 2 0.806124 1.39625 22.79 -1940.76 -1940.9 5336.46 -8.15999e-06 -0.0237805 -7.57461e-06
24 2 4.03062 1.39625 25.069 1828.61 1828.6 -69.7618 -5.66276e-07 -0.000831956 2.08626e-06
25 2 0 2.7925 0 2596.05 2596.03 -99.025 -1.52908e-10 -0.003428 -2.40819e-06
26 2 3.2245 2.7925 2.279 -1940.76 -1940.9 5336.46 2.91936e-06 -0.0237705 3.98014e-06
27 2 1.61225 2.7925 4.55799 -2804.09 -2804.23 -877.784 -8.64893e-07 -0.0237733 8.44558e-06
28 2 2.41837 4.18874 0 2596.05 2596.03 -99.025 1.73543e-06 -0.00342553 -8.78132e-07
29 2 0.806124 4.18874 2.279 -1940.76 -1940.9 5336.46 5.52055e-07 -0.0237755 5.8582e-06
30 2 4.03062 4.18874 4.55799 -2804.09 -2804.23 -877.784 -5.07187e-06 -0.0237728 1.4338e-07
31 2 0 2.7925 6.83699 -2812.34 -2812.49 -1020.97 -1.18645e-07 -0.0353465 -5.09603e-06
32 2 3.2245 2.7925 9.11598 -2812.36 -2812.5 -1021.14 6.5648e-06 -0.0237727 5.39491e-06
33 2 1.61225 2.7925 11.395 -2812.36 -2812.5 -1021.14 1.24116e-05 -0.0237652 1.62228e-05
34 2 2.41837 4.18874 6.83699 -2812.34 -2812.49 -1020.97 -1.96997e-06 -0.0353485 -5.59277e-06
35 2 0.806124 4.18874 9.11598 -2812.36 -2812.5 -1021.14 4.90092e-06 -0.0237706 -2.28485e-06
36 2 4.03062 4.18874 11.395 -2812.36 -2812.5 -1021.14 2.25041e-06 -0.0237829 1.16255e-06
37 2 0 2.7925 13.674 -2812.34 -2812.49 -1021.06 1.72509e-07 -0.035347 3.19396e-05
38 2 3.2245 2.7925 15.953 -2812.36 -2812.5 -1021.14 -2.7551e-05 -0.0237922 -7.8008e-06
39 2 1.61225 2.7925 18.232 -2812.36 -2812.5 -1021.04 -3.40101e-05 -0.0237945 -1.36277e-05
40 2 2.41837 4.18874 13.674 -2812.34 -2812.49 -1021.06 -1.75863e-05 -0.0353635 1.01426e-05
41 2 0.806124 4.18874 15.953 -2812.36 -2812.5 -1021.14 -1.93553e-05 -0.023788 4.60755e-06
42 2 4.03062 4.18874 18.232 -2812.36 -2812.5 -1021.04 1.3424e-05 -0.0237584 2.24948e-05
43 2 0 2.7925 20.511 -2804.07 -2804.22 -877.709 -6.56194e-07 -0.0353467 -2.27924e-05
44 2 3.2245 2.7925 22.79 -1940.76 -1940.9 5336.46 1.27821e-06 -0.0237754 4.81087e-07
45 2 1.61225 2.7925 25.069 1828.61 1828.6 -69.7618 -2.34211e-06 -0.000831134 2.31122e-07
46 2 2.41837 4.18874 20.511 -2804.07 -2804.22 -877.709 -2.6099e-06 -0.035339 -8.06176e-06
47 2 0.806124 4.18874 22.79 -1940.76 -1940.9 5336.46 1.67061e-06 -0.023775 -7.76688e-06
48 2 4.03062 4.18874 25.069 1828.61 1828.6 -69.7618 1.18919e-05 -0.000834795 -2.64917e-06
49 2 0 5.58499 0 2596.05 2596.03 -99.025 8.88119e-09 -0.00342801 1.01846e-06
50 2 3.2245 5.58499 2.279 -1940.76 -1940.9 5336.46 -2.60639e-06 -0.0237752 1.29546e-06
51 2 1.61225 5.58499 4.55799 -2804.09 -2804.23 -877.784 -6.30303e-06 -0.0237777 -2.82558e-06
52 2 2.41837 6.98124 0 2596.05 2596.03 -99.025 1.88012e-07 -0.00342666 2.11477e-06
53 2 0.806124 6.98124 2.279 -1940.76 -1940.9 5336.46 -1.47226e-06 -0.0237778 4.56138e-06
54 2 4.03062 6.98124 4.55799 -2804.09 -2804.23 -877.784 -9.03408e-06 -0.0237627 3.61031e-06
55 2 0 5.58499 6.83699 -2812.34 -2812.49 -1020.97 -1.16061e-07 -0.0353463 -1.72018e-05
56 2 3.2245 5.58499 9.11598 -2812.36 -2812.5 -1021.14 1.89832e-05 -0.0237626 9.20954e-06
57 2 1.61225 5.58499 11.395 -2812.36 -2812.5 -1021.14 5.84781e-06 -0.023778 2.40525e-05
58 2 2.41837 6.98124 6.83699 -2812.33 -2812.49 -1020.97 9.4565e-06 -0.0353231 -5.92756e-07
59 2 0.806124 6.98124 9.11598 -2812.36 -2812.5 -1021.14 9.15101e-06 -0.023766 1.11516e-05
60 2 4.03062 6.98124 11.395 -2812.36 -2812.5 -1021.14 -3.34586e-05 -0.0238307 -3.53093e-05
61 2 0 5.58499 13.674 -2812.34 -2812.49 -1021.06 -2.33813e-07 -0.0353472 2.6644e-05
62 2 3.2245 5.58499 15.953 -2812.36 -2812.5 -1021.14 -3.83671e-05 -0.0237895 5.48114e-06
63 2 1.61225 5.58499 18.232 -2812.36 -2812.5 -1021.04 -2.23565e-05 -0.0237726 -2.3311e-05
64 2 2.41837 6.98124 13.674 -2812.34 -2812.49 -1021.06 -6.02686e-05 -0.0354081 -1.1378e-05
65 2 0.806124 6.98124 15.953 -2812.36 -2812.5 -1021.14 -2.31811e-05 -0.0237863 -2.67801e-05
66 2 4.03062 6.98124 18.232 -2812.36 -2812.5 -1021.04 0.000116455 -0.0237033 6.50325e-05
67 2 0 5.58499 20.511 -2804.07 -2804.22 -877.709 2.57998e-07 -0.0353466 -3.3194e-05
68 2 3.2245 5.58499 22.79 -1940.76 -1940.9 5336.46 4.2716e-05 -0.0237736 -2.28233e-06
69 2 1.61225 5.58499 25.069 1828.61 1828.6 -69.7618 1.48354e-05 -0.000832787 1.56136e-06
70 2 2.41837 6.98124 20.511 -2804.07 -2804.22 -877.709 0.000121691 -0.0352887 1.31256e-05
71 2 0.806124 6.98124 22.79 -1940.76 -1940.9 5336.46 4.3321e-05 -0.0237703 5.67361e-06
72 2 4.03062 6.98124 25.069 1828.61 1828.6 -69.7618 -1.89192e-05 -0.000839525 -6.94198e-06
73 2 0 8.37749 0 2596.05 2596.03 -99.025 2.31085e-08 -0.00342802 4.86647e-06
74 2 3.2245 8.37749 2.279 -1940.76 -1940.9 5336.46 -7.3626e-06 -0.0237812 -9.61055e-09
75 2 1.61225 8.37749 4.55799 -2804.09 -2804.23 -877.784 -7.06751e-06 -0.0237714 -6.56263e-06
76 2 2.41837 9.77373 0 2596.05 2596.03 -99.025 -6.87194e-07 -0.0034303 3.3466e-06
77 2 0.806124 9.77373 2.279 -1940.76 -1940.9 5336.46 -2.38398e-06 -0.0237802 3.80201e-06
78 2 4.03062 9.77373 4.55799 -2804.09 -2804.23 -877.784 -4.92654e-06 -0.0237422 1.63254e-05
79 2 0 8.37749 6.83699 -2812.33 -2812.49 -1020.97 -1.40467e-07 -0.0353464 -8.66295e-06
80 2 3.2245 8.37749 9.11598 -2812.36 -2812.5 -1021.14 -1.95663e-06 -0.0237845 -1.0635e-05
81 2 1.61225 8.37749 11.395 -2812.36 -2812.5 -1021.14 -2.90324e-05 -0.0238242 -3.07079e-06
82 2 2.41837 9.77373 6.83699 -2812.33 -2812.49 -1020.97 1.0562e-05 -0.0353031 1.03664e-05
83 2 0.806124 9.77373 9.11598 -2812.36 -2812.5 -1021.14 -1.27043e-06 -0.0237789 1.34672e-05
84 2 4.03062 9.77373 11.395 -2812.36 -2812.5 -1021.14 -3.62263e-05 -0.0238259 -2.10556e-05
85 2 0 8.37749 13.674 -2812.34 -2812.49 -1021.06 -6.2156e-07 -0.0353466 -2.23845e-05
86 2 3.2245 8.37749 15.953 -2812.36 -2812.5 -1021.14 9.52859e-05 -0.0236745 8.21995e-05
87 2 1.61225 8.37749 18.232 -2812.36 -2812.5 -1021.04 0.000135918 -0.0236603 2.1253e-05
88 2 2.41837 9.77373 13.674 -2812.34 -2812.49 -1021.06 -1.30834e-05 -0.0353495 7.56226e-06
89 2 0.806124 9.77373 15.953 -2812.36 -2812.5 -1021.14 4.2665e-05 -0.0237158 -2.34554e-05
90 2 4.03062 9.77373 18.232 -2812.36 -2812.5 -1021.04 -3.41e-05 -0.0238295 -4.33814e-05
91 2 0 8.37749 20.511 -2804.07 -2804.22 -877.709 1.2938e-06 -0.0353467 1.90396e-05
92 2 3.2245 8.37749 22.79 -1940.76 -1940.9 5336.46 -1.81937e-05 -0.0237956 -1.6204e-05
93 2 1.61225 8.37749 25.069 1828.61 1828.6 -69.7618 1.06821e-05 -0.000844192 -2.11196e-06
94 2 2.41837 9.77373 20.511 -2804.07 -2804.22 -877.71 3.33332e-05 -0.0353652 -2.68354e-05
95 2 0.806124 9.77373 22.79 -1940.76 -1940.9 5336.46 1.62288e-05 -0.0237942 4.05773e-06
96 2 4.03062 9.77373 25.069 1828.61 1828.6 -69.7618 -6.70334e-05 -0.000814154 1.32902e-05
97 2 0 11.17 0 2596.05 2596.03 -99.025 3.00703e-08 -0.00342801 4.43256e-06
98 2 3.2245 11.17 2.279 -1940.76 -1940.9 5336.46 -5.30558e-06 -0.0237848 3.03156e-06
99 2 1.61225 11.17 4.55799 -2804.09 -2804.23 -877.784 -6.5924e-07 -0.0237556 9.28408e-06
100 2 2.41837 12.5662 0 2596.05 2596.03 -99.025 1.79732e-07 -0.00343423 7.58482e-07
101 2 0.806124 12.5662 2.279 -1940.76 -1940.9 5336.46 -1.15179e-06 -0.0237812 4.16524e-06
102 2 4.03062 12.5662 4.55799 -2804.09 -2804.23 -877.784 2.95798e-06 -0.0237353 2.63802e-05
103 2 0 11.17 6.83699 -2812.33 -2812.48 -1020.96 4.70289e-08 -0.0353466 2.20614e-05
104 2 3.2245 11.17 9.11598 -2812.36 -2812.5 -1021.14 -3.79704e-05 -0.0238338 -3.23023e-05
105 2 1.61225 11.17 11.395 -2812.36 -2812.5 -1021.14 -4.97204e-05 -0.0238538 -3.51286e-05
106 2 2.41837 12.5662 6.83699 -2812.34 -2812.49 -1020.97 -1.09998e-06 -0.0353209 1.88968e-05
107 2 0.806124 12.5662 9.11598 -2812.36 -2812.5 -1021.14 -1.37041e-05 -0.0238028 3.924e-06
108 2 4.03062 12.5662 11.395 -2812.36 -2812.5 -1021.13 3.80437e-05 -0.0236592 7.29376e-05
109 2 0 11.17 13.674 -2812.34 -2812.49 -1021.06 -2.22427e-06 -0.0353469 -6.55722e-05
110 2 3.2245 11.17 15.953 -2812.36 -2812.5 -1021.14 0.000104693 -0.0236714 4.88796e-05
111 2 1.61225 11.17 18.232 -2812.36 -2812.5 -1021.04 0.00016492 -0.0236585 3.94802e-05
112 2 2.41837 12.5662 13.674 -2812.34 -2812.49 -1021.06 0.000106987 -0.0351446 6.01013e-05
113 2 0.806124 12.5662 15.953 -2812.36 -2812.5 -1021.13 0.000123851 -0.0236065 4.45045e-05
114 2 4.03062 12.5662 18.232 -2812.36 -2812.5 -1021.04 -0.000272984 -0.0240821 -0.000186071
115 2 0 11.17 20.511 -2804.07 -2804.22 -877.709 2.60449e-06 -0.0353478 5.00363e-05
116 2 3.2245 11.17 22.79 -1940.76 -1940.9 5336.46 -0.00019874 -0.0238362 -3.65849e-05
117 2 1.61225 11.17 25.069 1828.61 1828.6 -69.7618 -3.60138e-05 -0.000844508 -2.66617e-06
118 2 2.41837 12.5662 20.511 -2804.07 -2804.22 -877.71 -0.000178012 -0.0355265 -8.26077e-05
119 2 0.806124 12.5662 22.79 -1940.76 -1940.9 5336.46 -1.96875e-05 -0.0237937 -4.93956e-06
120 2 4.03062 12.5662 25.069 1828.61 1828.6 -69.7617 4.45587e-05 -0.000748619 5.02391e-05
121 2 0 13.9625 0 2596.05 2596.03 -99.025 2.2864e-08 -0.003428 -3.43215e-07
122 2 3.2245 13.9625 2.279 -1940.76 -1940.9 5336.46 1.77451e-06 -0.0237832 6.46719e-06
123 2 1.61225 13.9625 4.55799 -2804.09 -2804.23 -877.784 7.11694e-06 -0.0237425 2.98357e-05
124 2 2.41837 15.3587 0 2596.05 2596.03 -99.025 1.36707e-06 -0.00343606 -3.20135e-06
125 2 0.806124 15.3587 2.279 -1940.76 -1940.9 5336.46 7.38065e-07 -0.0237801 3.30236e-06
126 2 4.03062 15.3587 4.55799 -2804.09 -2804.23 -877.784 8.0146e-06 -0.0237495 2.50938e-05
127 2 0 13.9625 6.83699 -2812.33 -2812.48 -1020.96 4.25792e-07 -0.0353462 4.60689e-05
128 2 3.2245 13.9625 9.11598 -2812.36 -2812.5 -1021.14 -5.33319e-05 -0.023875 -2.83844e-05
129 2 1.61225 13.9625 11.395 -2812.36 -2812.5 -1021.14 -3.12225e-05 -0.023815 -3.7905e-05
130 2 2.41837 15.3587 6.83699 -2812.34 -2812.49 -1020.97 -9.71717e-06 -0.0353677 2.10803e-05
131 2 0.806124 15.3587 9.11598 -2812.36 -2812.5 -1021.14 -1.62935e-05 -0.0238221 -2.28904e-06
132 2 4.03062 15.3587 11.395 -2812.36 -2812.5 -1021.13 8.65421e-05 -0.0234771 0.000116648
133 2 0 13.9625 13.674 -2812.34 -2812.49 -1021.06 -4.18617e-06 -0.0353507 -4.93908e-05
134 2 3.2245 13.9625 15.953 -2812.36 -2812.5 -1021.14 1.05961e-06 -0.0237897 -1.22413e-05
135 2 1.61225 13.9625 18.232 -2812.36 -2812.5 -1021.04 -6.54865e-06 -0.0238513 -1.08562e-05
136 2 2.41837 15.3587 13.674 -2812.34 -2812.49 -1021.06 0.00012613 -0.0350288 6.25894e-05
137 2 0.806124 15.3587 15.953 -2812.36 -2812.5 -1021.14 9.69463e-05 -0.0236192 7.51062e-05
138 2 4.03062 15.3587 18.232 -2812.36 -2812.49 -1021.04 -0.000749045 -0.0247263 -0.00044007
139 2 0 13.9625 20.511 -2804.07 -2804.22 -877.71 3.04061e-06 -0.035346 2.16513e-06
140 2 3.2245 13.9625 22.79 -1940.76 -1940.89 5336.46 -0.000290726 -0.0236005 7.765e-05
141 2 1.61225 13.9625 25.069 1828.61 1828.6 -69.7618 -6.63024e-05 -0.000815044 4.12836e-06
142 2 2.41837 15.3587 20.511 -2804.07 -2804.22 -877.709 -0.000480377 -0.0358518 -0.000148135
143 2 0.806124 15.3587 22.79 -1940.76 -1940.9 5336.46 8.95668e-06 -0.0237742 2.42542e-06
144 2 4.03062 15.3587 25.069 1828.61 1828.6 -69.7618 0.000220398 -0.000774813 3.16703e-05
145 2 0 16.755 0 2596.05 2596.03 -99.025 1.04241e-08 -0.00342799 -4.03746e-06
146 2 3.2245 16.755 2.279 -1940.76 -1940.9 5336.46 5.55772e-06 -0.0237785 5.61222e-06
147 2 1.61225 16.755 4.55799 -2804.09 -2804.23 -877.784 9.11562e-06 -0.02374 3.16672e-05
148 2 2.41837 18.1512 0 2596.05 2596.03 -99.025 1.26068e-06 -0.00343584 -3.78287e-06
149 2 0.806124 18.1512 2.279 -1940.76 -1940.9 5336.46 1.11972e-06 -0.0237784 1.28586e-06
150 2 4.03062 18.1512 4.55799 -2804.09 -2804.23 -877.785 6.7168e-06 -0.0237685 1.45405e-05
151 2 0 16.755 6.83699 -2812.33 -2812.49 -1020.96 5.22139e-07 -0.0353455 4.25407e-05
152 2 3.2245 16.755 9.11598 -2812.36 -2812.5 -1021.14 -3.44842e-05 -0.0238701 -3.48459e-06
153 2 1.61225 16.755 11.395 -2812.36 -2812.5 -1021.14 3.55036e-06 -0.0237051 -1.29946e-05
154 2 2.41837 18.1512 6.83699 -2812.34 -2812.49 -1020.97 -7.55173e-06 -0.0354108 1.4485e-05
155 2 0.806124 18.1512 9.11598 -2812.36 -2812.5 -1021.14 -9.88026e-06 -0.0238315 -1.75995e-06
156 2 4.03062 18.1512 11.395 -2812.36 -2812.5 -1021.14 5.41423e-05 -0.0234437 6.70976e-05
157 2 0 16.755 13.674 -2812.34 -2812.49 -1021.06 -2.6191e-06 -0.0353565 5.66868e-06
158 2 3.2245 16.755 15.953 -2812.36 -2812.5 -1021.14 -1.00881e-05 -0.0238092 -1.04682e-05
159 2 1.61225 16.755 18.232 -2812.36 -2812.5 -1021.04 -7.64361e-05 -0.0239975 -3.22571e-05
160 2 2.41837 18.1512 13.674 -2812.34 -2812.49 -1021.06 5.99825e-05 -0.0350703 2.78911e-05
161 2 0.806124 18.1512 15.953 -2812.36 -2812.5 -1021.14 3.24856e-05 -0.0237117 4.02659e-05
162 2 4.03062 18.1512 18.232 -2812.36 -2812.49 -1021.04 -0.000506125 -0.024451 -0.000253076
163 2 0 16.755 20.511 -2804.07 -2804.22 -877.712 1.42931e-07 -0.0353464 -8.27645e-07
164 2 3.2245 16.755 22.79 -1940.75 -1940.89 5336.46 0.000394519 -0.0227415 0.00028027
165 2 1.61225 16.755 25.069 1828.61 1828.6 -69.7618 -4.28163e-05 -0.000762758 9.7786e-06
166 2 2.41837 18.1512 20.511 -2804.07 -2804.22 -877.707 -0.000424128 -0.0359848 -9.68831e-05
167 2 0.806124 18.1512 22.79 -1940.76 -1940.9 5336.46 -7.77187e-06 -0.0237823 -2.24345e-06
168 2 4.03062 18.1512 25.069 1828.61 1828.6 -69.7619 0.000125608 -0.000868375 1.05554e-06
169 2 0 19.5475 0 2596.05 2596.03 -99.025 2.26342e-09 -0.00342799 -2.35507e-06
170 2 3.2245 19.5475 2.279 -1940.76 -1940.9 5336.46 2.75914e-06 -0.023775 1.97717e-06
171 2 1.61225 19.5475 4.55799 -2804.09 -2804.23 -877.784 3.99817e-06 -0.0237426 1.29064e-05
172 2 2.41837 20.9437 0 2596.05 2596.03 -99.025 1.33932e-10 -0.00343543 3.00868e-10
173 2 0.806124 20.9437 2.279 -1940.76 -1940.9 5336.46 6.01463e-10 -0.0237776 1.10796e-10
174 2 4.03062 20.9437 4.55799 -2804.09 -2804.23 -877.785 -1.17657e-10 -0.0237763 -1.91814e-10
175 2 0 19.5475 6.83699 -2812.33 -2812.49 -1020.97 2.18695e-07 -0.0353449 1.65564e-05
176 2 3.2245 19.5475 9.11598 -2812.36 -2812.5 -1021.14 -9.08567e-06 -0.023841 4.75439e-06
177 2 1.61225 19.5475 11.395 -2812.36 -2812.5 -1021.13 8.71307e-06 -0.023611 1.00054e-06
178 2 2.41837 20.9437 6.83699 -2812.34 -2812.49 -1020.97 -1.48387e-11 -0.035427 -1.27613e-10
179 2 0.806124 20.9437 9.11598 -2812.36 -2812.5 -1021.14 5.30237e-10 -0.0238335 4.74839e-11
180 2 4.03062 20.9437 11.395 -2812.36 -2812.5 -1021.14 -1.13926e-11 -0.0234594 2.79365e-11
181 2 0 19.5475 13.674 -2812.34 -2812.49 -1021.06 -2.88265e-07 -0.0353589 1.41864e-05
182 2 3.2245 19.5475 15.953 -2812.36 -2812.5 -1021.14 -1.40113e-05 -0.0239021 -1.23777e-05
183 2 1.61225 19.5475 18.232 -2812.36 -2812.5 -1021.04 -4.16568e-05 -0.0240926 -1.70965e-05
184 2 2.41837 20.9437 13.674 -2812.34 -2812.49 -1021.06 -1.08996e-10 -0.0351076 -1.08185e-10
185 2 0.806124 20.9437 15.953 -2812.36 -2812.5 -1021.14 6.09377e-10 -0.0237523 1.76086e-10
186 2 4.03062 20.9437 18.232 -2812.36 -2812.49 -1021.04 -9.44258e-11 -0.0238772 -1.35534e-10
187 2 0 19.5475 20.511 -2804.07 -2804.22 -877.712 -4.38047e-07 -0.0353494 3.69691e-06
188 2 3.2245 19.5475 22.79 -1940.75 -1940.89 5336.46 0.000339786 -0.0222156 0.000144719
189 2 1.61225 19.5475 25.069 1828.61 1828.6 -69.7617 -8.21485e-06 -0.000724293 5.1417e-06
190 2 2.41837 20.9437 20.511 -2804.07 -2804.22 -877.706 9.44605e-11 -0.0359023 3.19248e-10
191 2 0.806124 20.9437 22.79 -1940.76 -1940.9 5336.46 6.64775e-10 -0.0237823 1.22667e-10
192 2 4.03062 20.9437 25.069 1828.61 1828.6 -69.7619 -7.29848e-11 -0.000891674 -1.57863e-10
385 2 4.83674 0 0 2596.05 2596.03 -99.025 1.18068e-06 -0.0034268 -4.31553e-07
386 2 8.06124 0 2.279 -1940.76 -1940.9 5336.46 -5.52054e-07 -0.0237763 6.17818e-07
387 2 6.44899 0 4.55799 -2804.09 -2804.23 -877.784 -8.6177e-07 -0.0237728 -1.65435e-06
388 2 7.25512 1.39625 0 2596.05 2596.03 -99.025 4.92385e-07 -0.00342785 -4.19478e-07
389 2 5.64287 1.39625 2.279 -1940.76 -1940.9 5336.46 1.73696e-06 -0.023771 2.42617e-06
390 2 8.86736 1.39625 4.55799 -2804.09 -2804.23 -877.784 -1.07782e-06 -0.0237793 5.32621e-06
391 2 4.83674 0 6.83699 -2812.33 -2812.49 -1020.97 -2.23801e-06 -0.0353527 -4.44133e-06
392 2 8.06124 0 9.11598 -2812.36 -2812.5 -1021.14 1.60311e-05 -0.0237685 1.31476e-05
393 2 6.44899 0 11.395 -2812.36 -2812.5 -1021.14 1.16593e-05 -0.0237601 1.18345e-05
394 2 7.25512 1.39625 6.83699 -2812.33 -2812.49 -1020.96 1.17127e-05 -0.0353468 8.76476e-06
395 2 5.64287 1.39625 9.11598 -2812.36 -2812.5 -1021.14 1.39164e-05 -0.0237738 1.20344e-05
396 2 8.86736 1.39625 11.395 -2812.36 -2812.5 -1021.14 -3.19173e-06 -0.0237746 -2.57424e-05
397 2 4.83674 0 13.674 -2812.34 -2812.49 -1021.06 4.4796e-06 -0.0353329 8.46847e-06
398 2 8.06124 0 15.953 -2812.36 -2812.5 -1021.14 -2.76424e-05 -0.0237802 -1.98113e-05
399 2 6.44899 0 18.232 -2812.36 -2812.5 -1021.04 -2.71785e-05 -0.0237932 -1.43112e-05
400 2 7.25512 1.39625 13.674 -2812.34 -2812.49 -1021.06 -2.92399e-05 -0.0353521 -2.74292e-05
401 2 5.64287 1.39625 15.953 -2812.36 -2812.5 -1021.14 -3.33061e-05 -0.0237839 -1.97654e-05
402 2 8.86736 1.39625 18.232 -2812.36 -2812.5 -1021.04 5.82687e-05 -0.0237507 5.95689e-05
403 2 4.83674 0 20.511 -2804.07 -2804.22 -877.709 -2.06062e-05 -0.0353638 -1.06611e-05
404 2 8.06124 0 22.79 -1940.76 -1940.9 5336.46 2.571e-05 -0.0237795 9.90083e-06
405 2 6.44899 0 25.069 1828.61 1828.6 -69.7618 4.75324e-06 -0.000831865 1.97713e-06
406 2 7.25512 1.39625 20.511 -2804.07 -2804.22 -877.709 5.06028e-05 -0.0353386 3.06966e-05
407 2 5.64287 1.39625 22.79 -1940.76 -1940.9 5336.46 1.73874e-05 -0.0237776 6.88738e-06
408 2 8.86736 1.39625 25.069 1828.61 1828.6 -69.7618 4.49355e-06 -0.000836031 -5.31088e-06
409 2 4.83674 2.7925 0 2596.05 2596.03 -99.025 1.79024e-06 -0.00342588 -1.00089e-06
410 2 8.06124 2.7925 2.279 -1940.76 -1940.9 5336.46 -3.2448e-06 -0.023778 -2.78015e-07
411 2 6.44899 2.7925 4.55799 -2804.09 -2804.23 -877.784 -1.11654e-06 -0.0237704 2.0188e-06
412 2 7.25512 4.18874 0 2596.05 2596.03 -99.025 -1.54778e-06 -0.00342922 -2.68522e-06
413 2 5.64287 4.18874 2.279 -1940.76 -1940.9 5336.46 -2.45982e-06 -0.0237738 -7.11903e-07
414 2 8.86736 4.18874 4.55799 -2804.09 -2804.23 -877.784 6.99353e-06 -0.0237577 3.04492e-05
415 2 4.83674 2.7925 6.83699 -2812.33 -2812.49 -1020.96 3.41244e-06 -0.0353463 2.10557e-06
416 2 8.06124 2.7925 9.11598 -2812.36 -2812.5 -1021.14 1.81103e-05 -0.023774 3.80041e-06
417 2 6.44899 2.7925 11.395 -2812.36 -2812.5 -1021.14 -4.07442e-06 -0.0237889 -1.13857e-05
418 2 7.25512 4.18874 6.83699 -2812.33 -2812.49 -1020.96 2.32129e-05 -0.0353249 2.90718e-05
419 2 5.64287 4.18874 9.11598 -2812.36 -2812.5 -1021.14 1.44629e-05 -0.0237748 7.90673e-06
420 2 8.86736 4.18874 11.395 -2812.36 -2812.5 -1021.14 -1.48156e-05 -0.0237969 -4.52056e-05
421 2 4.83674 2.7925 13.674 -2812.34 -2812.49 -1021.06 -2.14378e-05 -0.0353613 -1.06386e-05
422 2 8.06124 2.7925 15.953 -2812.36 -2812.5 -1021.14 3.93741e-05 -0.0237345 5.08262e-05
423 2 6.44899 2.7925 18.232 -2812.36 -2812.5 -1021.04 5.60511e-05 -0.0237401 4.52973e-05
424 2 7.25512 4.18874 13.674 -2812.34 -2812.49 -1021.06 3.40656e-06 -0.0353374 1.05192e-05
425 2 5.64287 4.18874 15.953 -2812.36 -2812.5 -1021.14 2.21487e-05 -0.0237472 3.37574e-05
426 2 8.86736 4.18874 18.232 -2812.36 -2812.5 -1021.04 -1.36606e-05 -0.023801 -2.69228e-05
427 2 4.83674 2.7925 20.511 -2804.07 -2804.22 -877.709 3.55631e-05 -0.0353342 1.57883e-05
428 2 8.06124 2.7925 22.79 -1940.76 -1940.9 5336.46 -7.85394e-06 -0.0237906 -1.42361e-05
429 2 6.44899 2.7925 25.069 1828.61 1828.6 -69.7618 6.85476e-06 -0.00083684 -4.39068e-06
430 2 7.25512 4.18874 20.511 -2804.07 -2804.22 -877.71 -1.41282e-05 -0.0353743 -3.06645e-05
431 2 5.64287 4.18874 22.79 -1940.76 -1940.9 5336.46 1.22641e-05 -0.0237875 -9.69579e-06
432 2 8.86736 4.18874 25.069 1828.61 1828.6 -69.7618 -4.02498e-05 -0.000828066 5.88874e-06
433 2 4.83674 5.58499 0 2596.05 2596.03 -99.025 -3.63048e-07 -0.00342694 -1.04785e-06
434 2 8.06124 5.58499 2.279 -1940.76 -1940.9 5336.46 -5.92664e-06 -0.0237758 -1.02825e-06
435 2 6.44899 5.58499 4.55799 -2804.09 -2804.23 -877.784 8.07289e-07 -0.0237517 1.66179e-05
436 2 7.25512 6.98124 0 2596.05 2596.03 -99.025 -3.97e-06 -0.00343273 -4.69161e-06
437 2 5.64287 6.98124 2.279 -1940.76 -1940.9 5336.46 -7.59137e-06 -0.0237756 -3.34912e-06
438 2 8.86736 6.98124 4.55799 -2804.09 -2804.23 -877.784 8.73605e-06 -0.0237383 3.58083e-05
439 2 4.83674 5.58499 6.83699 -2812.33 -2812.49 -1020.97 1.41836e-05 -0.0353249 1.97365e-05
440 2 8.06124 5.58499 9.11598 -2812.36 -2812.5 -1021.14 -1.57313e-05 -0.0238087 -4.22498e-05
441 2 6.44899 5.58499 11.395 -2812.36 -2812.5 -1021.14 -3.09206e-05 -0.0238203 -4.50795e-05
442 2 7.25512 6.98124 6.83699 -2812.34 -2812.49 -1020.97 1.96929e-06 -0.0353355 8.10963e-06
443 2 5.64287 6.98124 9.11598 -2812.36 -2812.5 -1021.14 -1.44653e-05 -0.0238066 -2.71732e-05
444 2 8.86736 6.98124 11.395 -2812.36 -2812.5 -1021.13 9.01887e-05 -0.0236729 0.000126286
445 2 4.83674 5.58499 13.674 -2812.34 -2812.49 -1021.06 -2.983e-05 -0.0353694 -1.24967e-05
446 2 8.06124 5.58499 15.953 -2812.36 -2812.5 -1021.14 6.98073e-05 -0.0237392 5.6836e-05
447 2 6.44899 5.58499 18.232 -2812.36 -2812.5 -1021.04 5.22271e-05 -0.0237658 2.05186e-05
448 2 7.25512 6.98124 13.674 -2812.34 -2812.49 -1021.06 0.000142423 -0.0352181 0.000149759
449 2 5.64287 6.98124 15.953 -2812.36 -2812.5 -1021.14 0.000121232 -0.023686 0.000100863
450 2 8.86736 6.98124 18.232 -2812.36 -2812.5 -1021.04 -0.000447573 -0.0240475 -0.000357735
451 2 4.83674 5.58499 20.511 -2804.07 -2804.22 -877.71 5.24534e-05 -0.0353436 5.13564e-06
452 2 8.06124 5.58499 22.79 -1940.76 -1940.9 5336.46 -0.000167019 -0.0237995 -3.58208e-05
453 2 6.44899 5.58499 25.069 1828.61 1828.6 -69.7618 -4.37492e-05 -0.000832915 -1.46087e-06
454 2 7.25512 6.98124 20.511 -2804.07 -2804.22 -877.709 -0.000389441 -0.0355131 -0.000201268
455 2 5.64287 6.98124 22.79 -1940.76 -1940.9 5336.46 -0.000115398 -0.0238091 -3.48613e-05
456 2 8.86736 6.98124 25.069 1828.61 1828.6 -69.7617 0.00012712 -0.000798836 4.93839e-05
457 2 4.83674 8.37749 0 2596.05 2596.03 -99.025 -2.24939e-06 -0.0034311 -8.747e-07
458 2 8.06124 8.37749 2.279 -1940.76 -1940.9 5336.46 -3.54851e-06 -0.0237676 2.85874e-06
459 2 6.44899 8.37749 4.55799 -2804.09 -2804.23 -877.784 6.03313e-08 -0.0237319 2.4273e-05
460 2 7.25512 9.77373 0 2596.05 2596.03 -99.025 -2.99918e-06 -0.00343577 -3.84331e-06
461 2 5.64287 9.77373 2.279 -1940.76 -1940.9 5336.46 -5.83956e-06 -0.023774 5.97926e-07
462 2 8.86736 9.77373 4.55799 -2804.09 -2804.23 -877.785 -4.71887e-06 -0.0237551 -3.72258e-07
463 2 4.83674 8.37749 6.83699 -2812.34 -2812.49 -1020.97 2.71768e-06 -0.0353193 1.15326e-05
464 2 8.06124 8.37749 9.11598 -2812.36 -2812.5 -1021.14 -2.59047e-05 -0.023801 -3.07302e-05
465 2 6.44899 8.37749 11.395 -2812.36 -2812.5 -1021.14 4.42483e-05 -0.0237185 5.42942e-05
466 2 7.25512 9.77373 6.83699 -2812.34 -2812.49 -1020.97 -3.85855e-05 -0.0353803 -4.187e-05
467 2 5.64287 9.77373 9.11598 -2812.36 -2812.5 -1021.14 -4.35328e-05 -0.0238289 -5.08601e-05
468 2 8.86736 9.77373 11.395 -2812.36 -2812.5 -1021.14 0.000107337 -0.0236372 0.000161227
469 2 4.83674 8.37749 13.674 -2812.34 -2812.49 -1021.06 9.75802e-05 -0.0352414 0.000110398
470 2 8.06124 8.37749 15.953 -2812.36 -2812.5 -1021.14 -0.000110495 -0.0238922 -0.000116599
471 2 6.44899 8.37749 18.232 -2812.36 -2812.5 -1021.04 -0.000261079 -0.0239818 -0.000188929
472 2 7.25512 9.77373 13.674 -2812.34 -2812.49 -1021.06 2.4188e-05 -0.0353487 1.51133e-05
473 2 5.64287 9.77373 15.953 -2812.36 -2812.5 -1021.14 -2.47327e-05 -0.0238248 -2.62458e-05
474 2 8.86736 9.77373 18.232 -2812.35 -2812.49 -1021.04 0.000613341 -0.0226174 0.000848158
475 2 4.83674 8.37749 20.511 -2804.07 -2804.22 -877.71 -0.000171473 -0.0354521 -9.61451e-05
476 2 8.06124 8.37749 22.79 -1940.76 -1940.89 5336.46 0.000922063 -0.0233064 0.000486864
477 2 6.44899 8.37749 25.069 1828.61 1828.6 -69.7617 9.47533e-06 -0.000784842 4.45053e-05
478 2 7.25512 9.77373 20.511 -2804.06 -2804.22 -877.706 0.00058773 -0.0344877 0.000593614
479 2 5.64287 9.77373 22.79 -1940.76 -1940.89 5336.46 -0.000132385 -0.0235799 0.000109891
480 2 8.86736 9.77373 25.069 1828.61 1828.6 -69.762 6.56251e-05 -0.000863167 -2.39845e-05
481 2 4.83674 11.17 0 2596.05 2596.03 -99.025 -9.83005e-07 -0.00343577 -1.17958e-06
482 2 8.06124 11.17 2.279 -1940.76 -1940.9 5336.46 2.78343e-06 -0.0237613 6.93599e-06
483 2 6.44899 11.17 4.55799 -2804.09 -2804.23 -877.784 -4.85524e-06 -0.023744 1.29088e-05
484 2 7.25512 12.5662 0 2596.05 2596.03 -99.025 1.12883e-06 -0.00343524 -1.30149e-06
485 2 5.64287 12.5662 2.279 -1940.76 -1940.9 5336.46 2.57856e-06 -0.0237707 7.37454e-06
486 2 8.86736 12.5662 4.55799 -2804.09 -2804.23 -877.785 -1.69978e-05 -0.0237994 -3.6027e-05
487 2 4.83674 11.17 6.83699 -2812.34 -2812.49 -1020.97 -2.31426e-05 -0.0353521 -1.44928e-05
488 2 8.06124 11.17 9.11598 -2812.36 -2812.5 -1021.13 4.665e-05 -0.023619 0.000117666
489 2 6.44899 11.17 11.395 -2812.36 -2812.5 -1021.14 0.000142544 -0.0235308 0.00018267
490 2 7.25512 12.5662 6.83699 -2812.33 -2812.48 -1020.97 -5.54859e-05 -0.0354109 -5.76471e-05
491 2 5.64287 12.5662 9.11598 -2812.36 -2812.5 -1021.14 -2.34419e-05 -0.0237492 -2.10066e-06
492 2 8.86736 12.5662 11.395 -2812.36 -2812.5 -1021.14 -3.43997e-06 -0.0237891 -5.75752e-06
493 2 4.83674 11.17 13.674 -2812.34 -2812.49 -1021.06 0.000125109 -0.0351986 0.000122154
494 2 8.06124 11.17 15.953 -2812.36 -2812.5 -1021.14 -0.000923634 -0.0246913 -0.000835524
495 2 6.44899 11.17 18.232 -2812.36 -2812.49 -1021.04 -0.000952196 -0.0243495 -0.000528624
496 2 7.25512 12.5662 13.674 -2812.34 -2812.49 -1021.06 -4.98419e-05 -0.0354446 -5.8716e-05
497 2 5.64287 12.5662 15.953 -2812.36 -2812.5 -1021.14 -0.000201332 -0.0240683 -0.000166901
498 2 8.86736 12.5662 18.232 -2812.35 -2812.49 -1021.04 0.0036142 -0.0195818 0.00307917
499 2 4.83674 11.17 20.511 -2804.07 -2804.22 -877.708 -0.00065306 -0.0355914 -0.00023829
500 2 8.06124 11.17 22.79 -1940.76 -1940.9 5336.46 -0.00144836 -0.0239813 -0.000249538
501 2 6.44899 11.17 25.069 1828.61 1828.6 -69.7618 0.000290275 -0.00082421 1.55922e-05
502 2 7.25512 12.5662 20.511 -2804.06 -2804.22 -877.707 0.00258552 -0.0332441 0.0013741
503 2 5.64287 12.5662 22.79 -1940.75 -1940.89 5336.46 0.00162392 -0.0227998 0.000546951
504 2 8.86736 12.5662 25.069 1828.61 1828.6 -69.7623 0.000403514 -0.000686266 0.000115081
505 2 4.83674 13.9625 0 2596.05 2596.03 -99.025 2.07847e-06 -0.0034375 -2.39442e-06
506 2 8.06124 13.9625 2.279 -1940.76 -1940.9 5336.46 6.92056e-06 -0.023764 6.5371e-06
507 2 6.44899 13.9625 4.55799 -2804.09 -2804.23 -877.785 -6.87687e-06 -0.023784 -1.1545e-06
508 2 7.25512 15.3587 0 2596.05 2596.03 -99.025 4.23383e-06 -0.00343109 6.33897e-08
509 2 5.64287 15.3587 2.279 -1940.76 -1940.9 5336.46 8.66757e-06 -0.0237694 9.30358e-06
510 2 8.86736 15.3587 4.55799 -2804.09 -2804.23 -877.785 -1.69143e-05 -0.0238441 -4.10965e-05
511 2 4.83674 13.9625 6.83699 -2812.34 -2812.49 -1020.97 -3.57564e-05 -0.0354039 -2.59407e-05
512 2 8.06124 13.9625 9.11598 -2812.36 -2812.5 -1021.14 9.20944e-05 -0.0234582 0.000185004
513 2 6.44899 13.9625 11.395 -2812.36 -2812.5 -1021.14 6.28748e-05 -0.0236419 8.03476e-05
514 2 7.25512 15.3587 6.83699 -2812.33 -2812.48 -1020.96 -3.01216e-05 -0.0353739 -1.7659e-05
515 2 5.64287 15.3587 9.11598 -2812.36 -2812.5 -1021.13 3.19052e-05 -0.0235607 7.70421e-05
516 2 8.86736 15.3587 11.395 -2812.36 -2812.5 -1021.14 1.55572e-05 -0.0237227 2.41826e-05
517 2 4.83674 13.9625 13.674 -2812.34 -2812.49 -1021.06 6.31607e-06 -0.0353575 3.47948e-06
518 2 8.06124 13.9625 15.953 -2812.35 -2812.49 -1021.13 0.000468776 -0.0214833 0.000859057
519 2 6.44899 13.9625 18.232 -2812.35 -2812.49 -1021.03 0.00158893 -0.0202812 0.0014569
520 2 7.25512 15.3587 13.674 -2812.34 -2812.49 -1021.06 -0.000429716 -0.0364113 -0.000474026
521 2 5.64287 15.3587 15.953 -2812.36 -2812.5 -1021.14 -0.000809476 -0.025196 -0.000623721
522 2 8.86736 15.3587 18.232 -2812.38 -2812.51 -1021.06 -0.00782715 -0.0330349 -0.0055872
523 2 4.83674 13.9625 20.511 -2804.06 -2804.22 -877.704 0.000690162 -0.0337412 0.000550239
524 2 8.06124 13.9625 22.79 -1940.76 -1940.91 5336.45 0.00716767 -0.0131416 0.00548136
525 2 6.44899 13.9625 25.069 1828.61 1828.6 -69.7621 -4.24624e-05 -0.000788494 2.07498e-05
526 2 7.25512 15.3587 20.511 -2804.09 -2804.23 -877.721 -0.00549653 -0.0388132 -0.00200028