ITEM: TIMESTEP
0
ITEM: NUMBER OF ATOMS
3074
ITEM: BOX BOUNDS pp pp pp
0.0000000000000000e+00 3.8693948398131120e+01
0.0000000000000000e+00 4.4679925159782847e+01
0.0000000000000000e+00 6.0000000000000000e+01
ITEM: ATOMS id type x y z c_peratom[1] c_peratom[2] c_peratom[3] c_peratom[4] c_peratom[5] c_peratom[6]
1 2 0 0 0 -205991 -205989 7857.42 9.20823e-08 0.272004 0.000131053
2 2 3.2245 0 2.279 29869.7 29871.8 -82132 -3.73535e-05 0.365821 -3.78037e-05
3 2 1.61225 0 4.55799 43157 43159.1 13509.7 -1.61149e-05 0.365788 -9.95666e-05
4 2 2.41837 1.39625 0 -205991 -205989 7857.42 -0.000142692 0.271885 0.000154798
5 2 0.806124 1.39625 2.279 29869.7 29871.8 -82132 -2.09782e-05 0.365906 -7.04317e-05
6 2 4.03062 1.39625 4.55799 43157 43159.1 13509.7 -7.13874e-06 0.365795 -3.46867e-05
7 2 0 0 6.83699 43283.9 43286.2 15713.4 1.08038e-06 0.544013 -2.52196e-05
8 2 3.2245 0 9.11598 43284.3 43286.4 15716 4.6902e-05 0.366067 1.98233e-05
9 2 1.61225 0 11.395 43284.2 43286.4 15716 -3.44653e-05 0.365956 -2.58317e-05
10 2 2.41837 1.39625 6.83699 43283.9 43286.2 15713.4 9.93468e-05 0.544086 4.7732e-05
11 2 0.806124 1.39625 9.11598 43284.3 43286.4 15716 3.50684e-05 0.365951 0.000108963
12 2 4.03062 1.39625 11.395 43284.2 43286.4 15716 -0.000212692 0.365814 -0.000289416
13 2 0 0 13.674 43283.9 43286.2 15714.9 -3.42702e-06 0.544008 -0.000130595
14 2 3.2245 0 15.953 43284.3 43286.4 15716 -6.01862e-05 0.365804 -4.49525e-05
15 2 1.61225 0 18.232 43284.2 43286.3 15714.5 1.37028e-05 0.365919 -2.04785e-05
16 2 2.41837 1.39625 13.674 43283.9 43286.2 15714.9 -0.00023939 0.543866 -0.00029986
17 2 0.806124 1.39625 15.953 43284.3 43286.4 15716 -5.48227e-05 0.365906 -0.000266786
18 2 4.03062 1.39625 18.232 43284.2 43286.3 15714.5 0.000527472 0.366171 0.000335915
19 2 0 0 20.511 43156.6 43159 13508.6 7.12054e-06 0.544009 5.11512e-05
20 2 3.2245 0 22.79 29869.7 29871.8 -82132 0.000177904 0.366059 4.85044e-05
21 2 1.61225 0 25.069 -205991 -205989 7858.57 0.000359936 0.0939401 9.19471e-05
22 2 2.41837 1.39625 20.511 43156.6 43159 13508.6 0.000481569 0.544233 0.000256211
23 2 0.806124 1.39625 22.79 29869.7 29871.8 -82132 0.000125588 0.365999 0.000116579
24 2 4.03062 1.39625 25.069 -205991 -205989 7858.57 6.37902e-05 0.0937187 -0.000235014
25 2 0 2.7925 0 -205991 -205989 7857.42 1.21329e-08 0.272004 0.000191084
26 2 3.2245 2.7925 2.279 29869.7 29871.8 -82132 -4.49311e-05 0.365845 -6.12572e-05
27 2 1.61225 2.7925 4.55799 43157 43159.1 13509.7 1.33113e-05 0.365888 -0.000129984
28 2 2.41837 4.18874 0 -205991 -205989 7857.42 -0.000137702 0.271808 6.96779e-05
29 2 0.806124 4.18874 2.279 29869.7 29871.8 -82132 -8.49652e-06 0.365922 -9.01619e-05
30 2 4.03062 4.18874 4.55799 43157 43159.1 13509.7 7.80598e-05 0.36588 -2.20673e-06
31 2 0 2.7925 6.83699 43283.9 43286.2 15713.4 1.82603e-06 0.544009 7.84315e-05
32 2 3.2245 2.7925 9.11598 43284.3 43286.4 15716 -0.000101037 0.36588 -8.30315e-05
33 2 1.61225 2.7925 11.395 43284.2 43286.4 15716 -0.000191024 0.365764 -0.000249681
34 2 2.41837 4.18874 6.83699 43283.9 43286.2 15713.4 3.03193e-05 0.544039 8.60767e-05
35 2 0.806124 4.18874 9.11598 43284.3 43286.4 15716 -7.54287e-05 0.365846 3.51655e-05
36 2 4.03062 4.18874 11.395 43284.3 43286.4 15716 -3.46355e-05 0.366037 -1.78924e-05
37 2 0 2.7925 13.674 43283.9 43286.2 15714.9 -2.65503e-06 0.544016 -0.000491574
38 2 3.2245 2.7925 15.953 43284.3 43286.4 15716 0.00042403 0.366179 0.00012006
39 2 1.61225 2.7925 18.232 43284.2 43286.3 15714.5 0.00052344 0.366214 0.000209741
40 2 2.41837 4.18874 13.674 43283.9 43286.2 15714.9 0.000270666 0.54427 -0.000156102
41 2 0.806124 4.18874 15.953 43284.3 43286.4 15716 0.000297892 0.366114 -7.09135e-05
42 2 4.03062 4.18874 18.232 43284.2 43286.3 15714.5 -0.000206604 0.36566 -0.000346212
43 2 0 2.7925 20.511 43156.6 43159 13508.6 1.00993e-05 0.544011 0.000350791
44 2 3.2245 2.7925 22.79 29869.7 29871.8 -82132 -1.96726e-05 0.365921 -7.40428e-06
45 2 1.61225 2.7925 25.069 -205991 -205989 7858.57 0.000263836 0.0936261 -2.60356e-05
46 2 2.41837 4.18874 20.511 43156.6 43158.9 13508.6 4.01683e-05 0.543892 0.000124076
47 2 0.806124 4.18874 22.79 29869.7 29871.8 -82132 -2.5712e-05 0.365915 0.000119538
48 2 4.03062 4.18874 25.069 -205991 -205989 7858.57 -0.00133961 0.0940385 0.000298426
49 2 0 5.58499 0 -205991 -205989 7857.42 -7.04703e-07 0.272005 -8.08129e-05
50 2 3.2245 5.58499 2.279 29869.7 29871.8 -82132 4.01142e-05 0.365917 -1.99381e-05
51 2 1.61225 5.58499 4.55799 43157 43159.1 13509.7 9.70082e-05 0.365956 4.34877e-05
52 2 2.41837 6.98124 0 -205991 -205989 7857.42 -1.49183e-05 0.271898 -0.000167802
53 2 0.806124 6.98124 2.279 29869.7 29871.8 -82132 2.26592e-05 0.365957 -7.0203e-05
54 2 4.03062 6.98124 4.55799 43157 43159.1 13509.7 0.000139041 0.365725 -5.55653e-05
55 2 0 5.58499 6.83699 43283.9 43286.2 15713.4 1.78626e-06 0.544005 0.000264749
56 2 3.2245 5.58499 9.11598 43284.3 43286.4 15716 -0.000292164 0.365723 -0.000141741
57 2 1.61225 5.58499 11.395 43284.2 43286.4 15716 -9.0002e-05 0.365961 -0.000370185
58 2 2.41837 6.98124 6.83699 43283.9 43286.2 15713.4 -0.000145542 0.543648 9.12294e-06
59 2 0.806124 6.98124 9.11598 43284.3 43286.4 15716 -0.000140841 0.365777 -0.000171631
60 2 4.03062 6.98124 11.395 43284.3 43286.4 15716 0.000514952 0.366771 0.000543436
61 2 0 5.58499 13.674 43283.9 43286.2 15714.9 3.59855e-06 0.54402 -0.000410071
62 2 3.2245 5.58499 15.953 43284.2 43286.4 15716 0.000590498 0.366138 -8.43587e-05
63 2 1.61225 5.58499 18.232 43284.2 43286.3 15714.5 0.000344083 0.365878 0.000358774
64 2 2.41837 6.98124 13.674 43283.9 43286.2 15714.9 0.000927577 0.544957 0.000175116
65 2 0.806124 6.98124 15.953 43284.3 43286.4 15716 0.000356774 0.366088 0.000412165
66 2 4.03062 6.98124 18.232 43284.2 43286.3 15714.5 -0.00179232 0.364811 -0.0010009
67 2 0 5.58499 20.511 43156.6 43158.9 13508.6 -3.97077e-06 0.54401 0.00051088
68 2 3.2245 5.58499 22.79 29869.7 29871.8 -82132 -0.00065743 0.365893 3.51267e-05
69 2 1.61225 5.58499 25.069 -205991 -205989 7858.57 -0.00167119 0.0938123 -0.000175885
70 2 2.41837 6.98124 20.511 43156.6 43158.9 13508.6 -0.00187291 0.543119 -0.000202013
71 2 0.806124 6.98124 22.79 29869.7 29871.8 -82132 -0.000666742 0.365842 -8.73209e-05
72 2 4.03062 6.98124 25.069 -205991 -205989 7858.57 0.00213122 0.0945713 0.000782004
73 2 0 8.37749 0 -205991 -205989 7857.42 -1.83361e-06 0.272006 -0.000386143
74 2 3.2245 8.37749 2.279 29869.7 29871.8 -82132 0.000113316 0.36601 1.47913e-07
75 2 1.61225 8.37749 4.55799 43157 43159.1 13509.7 0.000108774 0.365859 0.000101004
76 2 2.41837 9.77373 0 -205991 -205989 7857.42 5.45273e-05 0.272187 -0.000265545
77 2 0.806124 9.77373 2.279 29869.7 29871.8 -82132 3.66912e-05 0.365994 -5.85157e-05
78 2 4.03062 9.77373 4.55799 43157 43159.1 13509.7 7.58231e-05 0.36541 -0.000251259
79 2 0 8.37749 6.83699 43283.9 43286.2 15713.4 2.16189e-06 0.544007 0.000133329
80 2 3.2245 8.37749 9.11598 43284.3 43286.4 15716 3.0114e-05 0.36606 0.00016368
81 2 1.61225 8.37749 11.395 43284.3 43286.4 15716 0.000446829 0.366672 4.72618e-05
82 2 2.41837 9.77373 6.83699 43283.9 43286.2 15713.4 -0.000162556 0.54334 -0.000159547
83 2 0.806124 9.77373 9.11598 43284.3 43286.4 15716 1.95528e-05 0.365975 -0.00020727
84 2 4.03062 9.77373 11.395 43284.2 43286.4 15716 0.00055755 0.366698 0.000324061
85 2 0 8.37749 13.674 43283.9 43286.2 15714.9 9.56625e-06 0.54401 0.000344514
86 2 3.2245 8.37749 15.953 43284.2 43286.4 15716 -0.00146652 0.364368 -0.00126511
87 2 1.61225 8.37749 18.232 43284.2 43286.3 15714.5 -0.00209188 0.36415 -0.000327099
88 2 2.41837 9.77373 13.674 43283.9 43286.2 15714.9 0.000201363 0.544055 -0.000116389
89 2 0.806124 9.77373 15.953 43284.2 43286.4 15716 -0.000656645 0.365003 0.000360996
90 2 4.03062 9.77373 18.232 43284.2 43286.4 15714.6 0.000524824 0.366753 0.00066767
91 2 0 8.37749 20.511 43156.6 43158.9 13508.6 -1.99125e-05 0.544012 -0.000293033
92 2 3.2245 8.37749 22.79 29869.7 29871.8 -82132 0.000280014 0.366231 0.000249391
93 2 1.61225 8.37749 25.069 -205991 -205989 7858.57 -0.00120332 0.0950971 0.00023791
94 2 2.41837 9.77373 20.511 43156.7 43159 13508.6 -0.000513022 0.544296 0.000413016
95 2 0.806124 9.77373 22.79 29869.7 29871.8 -82132 -0.000249773 0.36621 -6.24514e-05
96 2 4.03062 9.77373 25.069 -205991 -205989 7858.56 0.00755121 0.0917133 -0.00149713
97 2 0 11.17 0 -205991 -205989 7857.42 -2.38601e-06 0.272005 -0.000351714
98 2 3.2245 11.17 2.279 29869.7 29871.8 -82132 8.16568e-05 0.366065 -4.66578e-05
99 2 1.61225 11.17 4.55799 43157 43159.1 13509.7 1.01462e-05 0.365615 -0.000142889
100 2 2.41837 12.5662 0 -205991 -205989 7857.42 -1.42613e-05 0.272499 -6.01838e-05
101 2 0.806124 12.5662 2.279 29869.7 29871.8 -82132 1.77268e-05 0.36601 -6.41061e-05
102 2 4.03062 12.5662 4.55799 43157 43159.1 13509.7 -4.55254e-05 0.365303 -0.00040601
103 2 0 11.17 6.83699 43283.9 43286.2 15713.4 -7.23808e-07 0.544009 -0.000339541
104 2 3.2245 11.17 9.11598 43284.3 43286.4 15716 0.000584392 0.36682 0.000497156
105 2 1.61225 11.17 11.395 43284.3 43286.4 15716 0.000765233 0.367127 0.000540655
106 2 2.41837 12.5662 6.83699 43283.9 43286.2 15713.4 1.69295e-05 0.543614 -0.000290835
107 2 0.806124 12.5662 9.11598 43284.3 43286.4 15716 0.000210915 0.366342 -6.03933e-05
108 2 4.03062 12.5662 11.395 43284.2 43286.4 15716 -0.00058552 0.364132 -0.00112256
109 2 0 11.17 13.674 43283.9 43286.2 15714.9 3.42331e-05 0.544014 0.0010092
110 2 3.2245 11.17 15.953 43284.3 43286.4 15716 -0.0016113 0.36432 -0.000752293
111 2 1.61225 11.17 18.232 43284.2 43286.3 15714.5 -0.00253823 0.364121 -0.000607629
112 2 2.41837 12.5662 13.674 43283.9 43286.2 15714.9 -0.0016466 0.540901 -0.000925002
113 2 0.806124 12.5662 15.953 43284.2 43286.4 15716 -0.00190615 0.363321 -0.000684957
114 2 4.03062 12.5662 18.232 43284.2 43286.4 15714.6 0.00420142 0.370641 0.00286377
115 2 0 11.17 20.511 43156.6 43158.9 13508.6 -4.0085e-05 0.544028 -0.000770094
116 2 3.2245 11.17 22.79 29869.7 29871.8 -82132 0.00305875 0.366857 0.000563068
117 2 1.61225 11.17 25.069 -205991 -205989 7858.57 0.0040569 0.0951326 0.00030034
118 2 2.41837 12.5662 20.511 43156.7 43159 13508.6 0.00273974 0.546779 0.00127139
119 2 0.806124 12.5662 22.79 29869.7 29871.8 -82132 0.000303006 0.366203 7.60234e-05
120 2 4.03062 12.5662 25.069 -205991 -205989 7858.56 -0.00501947 0.0843309 -0.00565936
121 2 0 13.9625 0 -205991 -205989 7857.42 -1.81421e-06 0.272004 2.72334e-05
122 2 3.2245 13.9625 2.279 29869.7 29871.8 -82132 -2.73111e-05 0.366041 -9.95348e-05
123 2 1.61225 13.9625 4.55799 43157 43159.1 13509.7 -0.000109535 0.365414 -0.000459193
124 2 2.41837 15.3587 0 -205991 -205989 7857.42 -0.000108474 0.272644 0.00025402
125 2 0.806124 15.3587 2.279 29869.7 29871.8 -82132 -1.13594e-05 0.365994 -5.08256e-05
126 2 4.03062 15.3587 4.55799 43157 43159.1 13509.7 -0.000123351 0.365522 -0.000386212
127 2 0 13.9625 6.83699 43283.9 43286.2 15713.4 -6.55325e-06 0.544004 -0.000709034
128 2 3.2245 13.9625 9.11598 43284.2 43286.4 15716 0.000820817 0.367454 0.000436857
129 2 1.61225 13.9625 11.395 43284.2 43286.4 15716 0.000480537 0.36653 0.000583386
130 2 2.41837 15.3587 6.83699 43283.9 43286.2 15713.4 0.000149554 0.544335 -0.000324441
131 2 0.806124 15.3587 9.11598 43284.3 43286.4 15716 0.000250769 0.36664 3.523e-05
132 2 4.03062 15.3587 11.395 43284.2 43286.4 15716 -0.00133195 0.361329 -0.00179529
133 2 0 13.9625 13.674 43283.9 43286.2 15714.8 6.44282e-05 0.544073 0.00076016
134 2 3.2245 13.9625 15.953 43284.3 43286.4 15716 -1.63082e-05 0.366141 0.000188402
135 2 1.61225 13.9625 18.232 43284.2 43286.3 15714.6 0.000100788 0.367089 0.000167085
136 2 2.41837 15.3587 13.674 43283.9 43286.2 15714.9 -0.00194123 0.539119 -0.000963297
137 2 0.806124 15.3587 15.953 43284.2 43286.4 15716 -0.00149207 0.363517 -0.00115594
138 2 4.03062 15.3587 18.232 43284.2 43286.3 15714.5 0.0115283 0.380555 0.006773
139 2 0 13.9625 20.511 43156.7 43159 13508.6 -4.67971e-05 0.544001 -3.3323e-05
140 2 3.2245 13.9625 22.79 29869.7 29871.8 -82132 0.00447448 0.363229 -0.00119509
141 2 1.61225 13.9625 25.069 -205991 -205989 7858.57 0.00746888 0.0918135 -0.000465054
142 2 2.41837 15.3587 20.511 43156.7 43158.9 13508.6 0.00739335 0.551785 0.00227991
143 2 0.806124 15.3587 22.79 29869.7 29871.8 -82132 -0.00013785 0.365902 -3.7329e-05
144 2 4.03062 15.3587 25.069 -205991 -205989 7858.56 -0.0248276 0.0872816 -0.00356762
145 2 0 16.755 0 -205991 -205989 7857.42 -8.27127e-07 0.272004 0.000320363
146 2 3.2245 16.755 2.279 29869.7 29871.8 -82132 -8.55374e-05 0.365969 -8.63761e-05
147 2 1.61225 16.755 4.55799 43157 43159.1 13509.7 -0.000140296 0.365376 -0.000487381
148 2 2.41837 18.1512 0 -205991 -205989 7857.42 -0.000100032 0.272627 0.000300162
149 2 0.806124 18.1512 2.279 29869.7 29871.8 -82132 -1.72333e-05 0.365966 -1.97903e-05
150 2 4.03062 18.1512 4.55799 43157 43159.1 13509.7 -0.000103376 0.365814 -0.000223789
151 2 0 16.755 6.83699 43283.9 43286.2 15713.4 -8.0361e-06 0.543992 -0.000654732
152 2 3.2245 16.755 9.11598 43284.2 43286.4 15716 0.000530737 0.367378 5.36303e-05
153 2 1.61225 16.755 11.395 43284.2 43286.4 15716 -5.46427e-05 0.364838 0.000199996
154 2 2.41837 18.1512 6.83699 43283.9 43286.2 15713.4 0.000116227 0.544998 -0.000222934
155 2 0.806124 18.1512 9.11598 43284.3 43286.4 15716 0.000152064 0.366783 2.70869e-05
156 2 4.03062 18.1512 11.395 43284.2 43286.4 15716 -0.000833289 0.360815 -0.00103268
157 2 0 16.755 13.674 43283.9 43286.2 15714.8 4.03098e-05 0.544162 -8.7245e-05
158 2 3.2245 16.755 15.953 43284.3 43286.4 15716 0.000155263 0.366441 0.000161113
159 2 1.61225 16.755 18.232 43284.2 43286.4 15714.6 0.00117641 0.369339 0.00049646
160 2 2.41837 18.1512 13.674 43283.9 43286.2 15714.9 -0.000923174 0.539757 -0.000429265
161 2 0.806124 18.1512 15.953 43284.2 43286.4 15716 -0.000499977 0.364941 -0.000619721
162 2 4.03062 18.1512 18.232 43284.2 43286.3 15714.5 0.00778963 0.376318 0.00389502
163 2 0 16.755 20.511 43156.7 43159 13508.6 -2.1998e-06 0.544007 1.27381e-05
164 2 3.2245 16.755 22.79 29869.6 29871.7 -82132 -0.00607193 0.350008 -0.00431355
165 2 1.61225 16.755 25.069 -205991 -205989 7858.56 0.00482319 0.0859236 -0.00110155
166 2 2.41837 18.1512 20.511 43156.6 43158.9 13508.5 0.00652764 0.553833 0.0014911
167 2 0.806124 18.1512 22.79 29869.7 29871.8 -82132 0.000119615 0.366026 3.45283e-05
168 2 4.03062 18.1512 25.069 -205991 -205989 7858.58 -0.0141496 0.0978212 -0.000118905
169 2 0 19.5475 0 -205991 -205989 7857.42 -1.79597e-07 0.272004 0.00018687
170 2 3.2245 19.5475 2.279 29869.7 29871.8 -82132 -4.24651e-05 0.365915 -3.04301e-05
171 2 1.61225 19.5475 4.55799 43157 43159.1 13509.7 -6.15347e-05 0.365416 -0.000198639
172 2 2.41837 20.9437 0 -205991 -205989 7857.42 -1.06272e-08 0.272594 -2.38732e-08
173 2 0.806124 20.9437 2.279 29869.7 29871.8 -82132 -9.25695e-09 0.365954 -1.70523e-09
174 2 4.03062 20.9437 4.55799 43157 43159.1 13509.7 1.81083e-09 0.365935 2.95215e-09
175 2 0 19.5475 6.83699 43283.9 43286.2 15713.4 -3.36588e-06 0.543984 -0.000254815
176 2 3.2245 19.5475 9.11598 43284.2 43286.4 15716 0.000139835 0.36693 -7.31735e-05
177 2 1.61225 19.5475 11.395 43284.2 43286.4 15716 -0.0001341 0.363391 -1.5399e-05
178 2 2.41837 20.9437 6.83699 43283.9 43286.2 15713.4 2.28379e-10 0.545248 1.96406e-09
179 2 0.806124 20.9437 9.11598 43284.3 43286.4 15716 -8.16073e-09 0.366814 -7.30812e-10
180 2 4.03062 20.9437 11.395 43284.2 43286.4 15716 1.7534e-10 0.361058 -4.29964e-10
181 2 0 19.5475 13.674 43283.9 43286.2 15714.8 4.43661e-06 0.544199 -0.000218338
182 2 3.2245 19.5475 15.953 43284.3 43286.4 15716 0.000215643 0.36787 0.000190502
183 2 1.61225 19.5475 18.232 43284.2 43286.4 15714.6 0.000641128 0.370802 0.000263128
184 2 2.41837 20.9437 13.674 43283.9 43286.2 15714.9 1.67752e-09 0.540331 1.66504e-09
185 2 0.806124 20.9437 15.953 43284.2 43286.4 15716 -9.37875e-09 0.365564 -2.71009e-09
186 2 4.03062 20.9437 18.232 43284.2 43286.3 15714.5 1.45328e-09 0.367488 2.08597e-09
187 2 0 19.5475 20.511 43156.7 43159 13508.6 6.74186e-06 0.544052 -5.68981e-05
188 2 3.2245 19.5475 22.79 29869.6 29871.8 -82132 -0.00522955 0.341914 -0.00222733
189 2 1.61225 19.5475 25.069 -205991 -205989 7858.56 0.000925391 0.0815906 -0.000579205
190 2 2.41837 20.9437 20.511 43156.6 43158.9 13508.5 -1.45382e-09 0.552562 -4.91347e-09
191 2 0.806124 20.9437 22.79 29869.7 29871.8 -82132 -1.02314e-08 0.366027 -1.88793e-09
192 2 4.03062 20.9437 25.069 -205991 -205989 7858.58 8.22163e-09 0.100446 1.77831e-08
385 2 4.83674 0 0 -205991 -205989 7857.42 -9.36847e-05 0.271909 3.42428e-05
386 2 8.06124 0 2.279 29869.7 29871.8 -82132 8.4965e-06 0.365934 -9.50867e-06
387 2 6.44899 0 4.55799 43157 43159.1 13509.7 1.32633e-05 0.365881 2.54617e-05
388 2 7.25512 1.39625 0 -205991 -205989 7857.42 -3.90697e-05 0.271992 3.32846e-05
389 2 5.64287 1.39625 2.279 29869.7 29871.8 -82132 -2.67331e-05 0.365854 -3.73406e-05
390 2 8.86736 1.39625 4.55799 43157 43159.1 13509.7 1.65885e-05 0.36598 -8.19742e-05
391 2 4.83674 0 6.83699 43283.9 43286.2 15713.4 3.44446e-05 0.544104 6.83553e-05
392 2 8.06124 0 9.11598 43284.3 43286.4 15716 -0.00024673 0.365815 -0.000202351
393 2 6.44899 0 11.395 43284.2 43286.4 15716 -0.000179445 0.365685 -0.000182142
394 2 7.25512 1.39625 6.83699 43283.9 43286.2 15713.4 -0.000180267 0.544012 -0.000134896
395 2 5.64287 1.39625 9.11598 43284.2 43286.4 15716 -0.000214184 0.365896 -0.000185217
396 2 8.86736 1.39625 11.395 43284.3 43286.4 15716 4.9123e-05 0.365908 0.000396194
397 2 4.83674 0 13.674 43283.9 43286.2 15714.9 -6.89443e-05 0.543799 -0.000130336
398 2 8.06124 0 15.953 43284.3 43286.4 15716 0.000425437 0.365994 0.000304911
399 2 6.44899 0 18.232 43284.2 43286.3 15714.5 0.000418296 0.366195 0.00022026
400 2 7.25512 1.39625 13.674 43283.9 43286.2 15714.9 0.000450023 0.544094 0.000422155
401 2 5.64287 1.39625 15.953 43284.3 43286.4 15716 0.000512606 0.366052 0.000304204
402 2 8.86736 1.39625 18.232 43284.2 43286.3 15714.5 -0.000896798 0.36554 -0.000916808
403 2 4.83674 0 20.511 43156.6 43159 13508.6 0.000317145 0.544274 0.000164083
404 2 8.06124 0 22.79 29869.7 29871.8 -82132 -0.000395696 0.365984 -0.000152381
405 2 6.44899 0 25.069 -205991 -205989 7858.57 -0.000535446 0.0937084 -0.000222721
406 2 7.25512 1.39625 20.511 43156.6 43158.9 13508.6 -0.000778814 0.543886 -0.000472443
407 2 5.64287 1.39625 22.79 29869.7 29871.8 -82132 -0.000267604 0.365954 -0.000106002
408 2 8.86736 1.39625 25.069 -205991 -205989 7858.57 -0.000506192 0.0941777 0.000598263
409 2 4.83674 2.7925 0 -205991 -205989 7857.42 -0.000142052 0.271836 7.94181e-05
410 2 8.06124 2.7925 2.279 29869.7 29871.8 -82132 4.99398e-05 0.365961 4.27886e-06
411 2 6.44899 2.7925 4.55799 43157 43159.1 13509.7 1.71844e-05 0.365844 -3.10709e-05
412 2 7.25512 4.18874 0 -205991 -205989 7857.42 0.000122813 0.272101 0.000213067
413 2 5.64287 4.18874 2.279 29869.7 29871.8 -82132 3.78584e-05 0.365896 1.09567e-05
414 2 8.86736 4.18874 4.55799 43157 43159.1 13509.7 -0.000107635 0.365648 -0.000468635
415 2 4.83674 2.7925 6.83699 43283.9 43286.2 15713.4 -5.25199e-05 0.544005 -3.24063e-05
416 2 8.06124 2.7925 9.11598 43284.3 43286.4 15716 -0.000278731 0.3659 -5.8491e-05
417 2 6.44899 2.7925 11.395 43284.3 43286.4 15716 6.27082e-05 0.366128 0.000175234
418 2 7.25512 4.18874 6.83699 43283.9 43286.2 15713.4 -0.000357264 0.543676 -0.000447436
419 2 5.64287 4.18874 9.11598 43284.3 43286.4 15716 -0.000222594 0.365911 -0.00012169
420 2 8.86736 4.18874 11.395 43284.2 43286.4 15716 0.000228022 0.366251 0.000695747
421 2 4.83674 2.7925 13.674 43283.9 43286.2 15714.9 0.000329943 0.544237 0.000163735
422 2 8.06124 2.7925 15.953 43284.2 43286.4 15716 -0.000605996 0.365291 -0.000782251
423 2 6.44899 2.7925 18.232 43284.2 43286.3 15714.5 -0.000862668 0.365378 -0.000697158
424 2 7.25512 4.18874 13.674 43283.9 43286.2 15714.9 -5.24294e-05 0.543868 -0.000161897
425 2 5.64287 4.18874 15.953 43284.2 43286.4 15716 -0.000340884 0.365487 -0.000519551
426 2 8.86736 4.18874 18.232 43284.2 43286.3 15714.6 0.000210247 0.366314 0.000414361
427 2 4.83674 2.7925 20.511 43156.6 43158.9 13508.6 -0.000547342 0.543818 -0.000242994
428 2 8.06124 2.7925 22.79 29869.7 29871.8 -82132 0.000120878 0.366155 0.000219104
429 2 6.44899 2.7925 25.069 -205991 -205989 7858.57 -0.000772179 0.0942689 0.000494603
430 2 7.25512 4.18874 20.511 43156.6 43159 13508.6 0.000217443 0.544436 0.000471948
431 2 5.64287 4.18874 22.79 29869.7 29871.8 -82132 -0.000188753 0.366107 0.000149225
432 2 8.86736 4.18874 25.069 -205991 -205989 7858.57 0.00453408 0.0932805 -0.000663359
433 2 4.83674 5.58499 0 -205991 -205989 7857.42 2.8807e-05 0.27192 8.31445e-05
434 2 8.06124 5.58499 2.279 29869.7 29871.8 -82132 9.12153e-05 0.365926 1.58255e-05
435 2 6.44899 5.58499 4.55799 43157 43159.1 13509.7 -1.24248e-05 0.365556 -0.000255761
436 2 7.25512 6.98124 0 -205991 -205989 7857.42 0.000315011 0.272379 0.000372269
437 2 5.64287 6.98124 2.279 29869.7 29871.8 -82132 0.000116837 0.365923 5.15454e-05
438 2 8.86736 6.98124 4.55799 43157 43159.1 13509.7 -0.000134454 0.36535 -0.000551115
439 2 4.83674 5.58499 6.83699 43283.9 43286.2 15713.4 -0.000218296 0.543676 -0.00030376
440 2 8.06124 5.58499 9.11598 43284.3 43286.4 15716 0.000242115 0.366433 0.000650254
441 2 6.44899 5.58499 11.395 43284.2 43286.4 15716 0.00047589 0.366612 0.000693806
442 2 7.25512 6.98124 6.83699 43283.9 43286.2 15713.4 -3.03088e-05 0.543839 -0.000124813
443 2 5.64287 6.98124 9.11598 43284.3 43286.4 15716 0.000222632 0.366401 0.000418216
444 2 8.86736 6.98124 11.395 43284.2 43286.4 15716 -0.00138807 0.364343 -0.00194363
445 2 4.83674 5.58499 13.674 43283.9 43286.2 15714.9 0.000459105 0.544361 0.000192334
446 2 8.06124 5.58499 15.953 43284.3 43286.4 15716 -0.00107438 0.365364 -0.000874747
447 2 6.44899 5.58499 18.232 43284.2 43286.3 15714.6 -0.000803813 0.365772 -0.000315796
448 2 7.25512 6.98124 13.674 43283.9 43286.2 15714.9 -0.00219199 0.542033 -0.00230489
449 2 5.64287 6.98124 15.953 43284.2 43286.4 15716 -0.00186584 0.364545 -0.00155236
450 2 8.86736 6.98124 18.232 43284.2 43286.4 15714.6 0.00688847 0.370109 0.0055058
451 2 4.83674 5.58499 20.511 43156.6 43159 13508.6 -0.000807296 0.543963 -7.90412e-05
452 2 8.06124 5.58499 22.79 29869.7 29871.8 -82132 0.00257054 0.366292 0.000551308
453 2 6.44899 5.58499 25.069 -205991 -205989 7858.57 0.00492829 0.0938267 0.000164565
454 2 7.25512 6.98124 20.511 43156.6 43159 13508.6 0.00599378 0.546572 0.00309767
455 2 5.64287 6.98124 22.79 29869.7 29871.8 -82132 0.00177606 0.366439 0.000536541
456 2 8.86736 6.98124 25.069 -205991 -205989 7858.56 -0.0143199 0.0899877 -0.00556302
457 2 4.83674 8.37749 0 -205991 -205989 7857.42 0.000178484 0.27225 6.94055e-05
458 2 8.06124 8.37749 2.279 29869.7 29871.8 -82132 5.46142e-05 0.3658 -4.39981e-05
459 2 6.44899 8.37749 4.55799 43157 43159.1 13509.7 -9.28542e-07 0.365252 -0.000373578
460 2 7.25512 9.77373 0 -205991 -205989 7857.42 0.000237978 0.272621 0.000304958
461 2 5.64287 9.77373 2.279 29869.7 29871.8 -82132 8.98751e-05 0.365898 -9.20252e-06
462 2 8.86736 9.77373 4.55799 43157 43159.1 13509.7 7.26268e-05 0.365609 5.72932e-06
463 2 4.83674 8.37749 6.83699 43283.9 43286.2 15713.4 -4.1827e-05 0.543589 -0.000177495
464 2 8.06124 8.37749 9.11598 43284.2 43286.4 15716 0.000398692 0.366314 0.00047296
465 2 6.44899 8.37749 11.395 43284.2 43286.4 15716 -0.000681014 0.365045 -0.000835627
466 2 7.25512 9.77373 6.83699 43283.9 43286.2 15713.4 0.000593858 0.544528 0.00064441
467 2 5.64287 9.77373 9.11598 43284.2 43286.4 15716 0.000670001 0.366745 0.000782774
468 2 8.86736 9.77373 11.395 43284.3 43286.4 15716 -0.001652 0.363794 -0.0024814
469 2 4.83674 8.37749 13.674 43283.9 43286.2 15714.9 -0.00150183 0.542391 -0.0016991
470 2 8.06124 8.37749 15.953 43284.3 43286.4 15716 0.00170059 0.367719 0.00179454
471 2 6.44899 8.37749 18.232 43284.2 43286.4 15714.6 0.0040182 0.369097 0.00290776
472 2 7.25512 9.77373 13.674 43283.9 43286.2 15714.9 -0.000372271 0.544043 -0.000232604
473 2 5.64287 9.77373 15.953 43284.3 43286.4 15716 0.000380654 0.366681 0.000403942
474 2 8.86736 9.77373 18.232 43284.2 43286.3 15714.5 -0.00943977 0.348098 -0.0130538
475 2 4.83674 8.37749 20.511 43156.7 43159 13508.6 0.00263909 0.545634 0.00147974
476 2 8.06124 8.37749 22.79 29869.6 29871.8 -82132 -0.0141912 0.358703 -0.00749319
477 2 6.44899 8.37749 25.069 -205991 -205989 7858.56 -0.00106738 0.0884113 -0.00501346
478 2 7.25512 9.77373 20.511 43156.6 43158.9 13508.5 -0.00904559 0.53079 -0.00913616
479 2 5.64287 9.77373 22.79 29869.7 29871.8 -82132 0.0020375 0.362912 -0.0016913
480 2 8.86736 9.77373 25.069 -205991 -205989 7858.59 -0.00739258 0.0972345 0.00270182
481 2 4.83674 11.17 0 -205991 -205989 7857.42 7.79993e-05 0.272621 9.3597e-05
482 2 8.06124 11.17 2.279 29869.7 29871.8 -82132 -4.28391e-05 0.365704 -0.00010675
483 2 6.44899 11.17 4.55799 43157 43159.1 13509.7 7.47256e-05 0.365437 -0.000198676
484 2 7.25512 12.5662 0 -205991 -205989 7857.42 -8.95705e-05 0.272578 0.000103271
485 2 5.64287 12.5662 2.279 29869.7 29871.8 -82132 -3.9686e-05 0.365849 -0.000113499
486 2 8.86736 12.5662 4.55799 43157 43159.1 13509.7 0.000261609 0.36629 0.000554482
487 2 4.83674 11.17 6.83699 43283.9 43286.2 15713.4 0.000356182 0.544094 0.000223054
488 2 8.06124 11.17 9.11598 43284.2 43286.4 15716 -0.000717977 0.363513 -0.00181096
489 2 6.44899 11.17 11.395 43284.2 43286.4 15716 -0.00219385 0.362156 -0.00281143
490 2 7.25512 12.5662 6.83699 43283.9 43286.2 15713.4 0.000853968 0.545 0.000887231
491 2 5.64287 12.5662 9.11598 43284.2 43286.4 15716 0.000360789 0.365518 3.23306e-05
492 2 8.86736 12.5662 11.395 43284.3 43286.4 15716 5.29437e-05 0.366132 8.86124e-05
493 2 4.83674 11.17 13.674 43283.9 43286.2 15714.9 -0.00192551 0.541732 -0.00188004
494 2 8.06124 11.17 15.953 43284.2 43286.4 15716 0.0142154 0.380018 0.0128593
495 2 6.44899 11.17 18.232 43284.2 43286.3 15714.5 0.014655 0.374757 0.0081359
496 2 7.25512 12.5662 13.674 43283.9 43286.2 15714.9 0.000767103 0.545518 0.000903681
497 2 5.64287 12.5662 15.953 43284.3 43286.4 15716 0.00309865 0.370428 0.00256872
498 2 8.86736 12.5662 18.232 43284.1 43286.3 15714.5 -0.0556251 0.301377 -0.0473906
499 2 4.83674 11.17 20.511 43156.6 43158.9 13508.6 0.0100511 0.547778 0.00366746
500 2 8.06124 11.17 22.79 29869.8 29871.9 -82131.9 0.0222912 0.36909 0.00384056
501 2 6.44899 11.17 25.069 -205991 -205989 7858.57 -0.0326991 0.0928461 -0.00175644
502 2 7.25512 12.5662 20.511 43156.6 43158.9 13508.6 -0.039793 0.511651 -0.0211484
503 2 5.64287 12.5662 22.79 29869.6 29871.8 -82132 -0.0249933 0.350906 -0.00841798
504 2 8.86736 12.5662 25.069 -205991 -205989 7858.62 -0.0454552 0.0773069 -0.0129637
505 2 4.83674 13.9625 0 -205991 -205989 7857.42 -0.000164922 0.272758 0.000189992
506 2 8.06124 13.9625 2.279 29869.7 29871.8 -82132 -0.000106512 0.365745 -0.000100611
507 2 6.44899 13.9625 4.55799 43157 43159.1 13509.7 0.00010584 0.366053 1.77686e-05
508 2 7.25512 15.3587 0 -205991 -205989 7857.42 -0.000335945 0.27225 -5.02983e-06
509 2 5.64287 15.3587 2.279 29869.7 29871.8 -82132 -0.0001334 0.365828 -0.000143189
510 2 8.86736 15.3587 4.55799 43157 43159.1 13509.7 0.000260324 0.366978 0.000632505
511 2 4.83674 13.9625 6.83699 43283.9 43286.2 15713.4 0.000550317 0.544891 0.000399247
512 2 8.06124 13.9625 9.11598 43284.2 43286.4 15716 -0.0014174 0.361039 -0.00284734
513 2 6.44899 13.9625 11.395 43284.3 43286.4 15716 -0.000967689 0.363866 -0.00123661
514 2 7.25512 15.3587 6.83699 43283.9 43286.2 15713.4 0.000463593 0.54443 0.000271785
515 2 5.64287 15.3587 9.11598 43284.2 43286.4 15716 -0.000491044 0.362616 -0.00118573
516 2 8.86736 15.3587 11.395 43284.3 43286.4 15716 -0.000239436 0.36511 -0.000372187
517 2 4.83674 13.9625 13.674 43283.9 43286.2 15714.9 -9.72088e-05 0.544177 -5.35517e-05
518 2 8.06124 13.9625 15.953 43284.1 43286.3 15715.9 -0.00721481 0.330643 -0.0132215
519 2 6.44899 13.9625 18.232 43284.1 43286.3 15714.4 -0.0244548 0.312143 -0.0224228
520 2 7.25512 15.3587 13.674 43283.9 43286.2 15714.9 0.00661363 0.560396 0.0072956
521 2 5.64287 15.3587 15.953 43284.3 43286.4 15716 0.0124584 0.387785 0.00959951
522 2 8.86736 15.3587 18.232 43284.6 43286.6 15714.8 0.120465 0.508431 0.0859911
523 2 4.83674 13.9625 20.511 43156.6 43158.9 13508.5 -0.0106221 0.519301 -0.00846858
524 2 8.06124 13.9625 22.79 29869.7 29872 -82131.8 -0.110316 0.202259 -0.0843621
525 2 6.44899 13.9625 25.069 -205991 -205989 7858.6 0.00478333 0.0888228 -0.00233744
526 2 7.25512 15.3587 20.511 43157 43159.2 13508.8 0.0845956 0.597364 0.0307857
527 2 5.64287 15.3587 22.79 29869.8 29871.9 -82131.9 0.0175754 0.372748 0.0029896
528 2 8.86736 15.3587 25.069 -205990 -205989 7858.37 0.576324 0.0423679 0.00124596
529 2 4.83674 16.755 0 -205991 -205989 7857.42 -0.000261004 0.272623 0.000252048
530 2 8.06124 16.755 2.279 29869.7 29871.8 -82132 -9.55669e-05 0.365862 -5.8784e-05
531 2 6.44899 16.755 4.55799 43157 43159.1 13509.7 5.84927e-05 0.366683 7.29311e-05
532 2 7.25512 18.1512 0 -205991 -205989 7857.42 -0.000276623 0.271878 -1.36041e-06
533 2 5.64287 18.1512 2.279 29869.7 29871.8 -82132 -0.000105237 0.365834 -8.63729e-05
534 2 8.86736 18.1512 4.55799 43157 43159.1 13509.7 0.000125271 0.367375 0.000332991
535 2 4.83674 16.755 6.83699 43283.9 43286.2 15713.4 0.000395078 0.545522 0.00024232
536 2 8.06124 16.755 9.11598 43284.3 43286.4 15716 -0.000750062 0.362222 -0.00140276
537 2 6.44899 16.755 11.395 43284.3 43286.4 15716 -2.47785e-05 0.365976 -2.88293e-05
538 2 7.25512 18.1512 6.83699 43283.9 43286.2 15713.4 8.96092e-06 0.543149 -0.000248552
539 2 5.64287 18.1512 9.11598 43284.2 43286.4 15716 -0.000635095 0.360395 -0.00114024
540 2 8.86736 18.1512 11.395 43284.3 43286.4 15716 0.000977629 0.372051 0.00151126
541 2 4.83674 16.755 13.674 43283.9 43286.2 15714.9 -7.68632e-05 0.543675 -8.07413e-05
542 2 8.06124 16.755 15.953 43284 43286.3 15715.8 -0.0500472 0.193762 -0.0544004
543 2 6.44899 16.755 18.232 43284 43286.3 15714.4 -0.0513278 0.237397 -0.0377696
544 2 7.25512 18.1512 13.674 43283.9 43286.2 15714.9 0.00890141 0.583142 0.00941884
545 2 5.64287 18.1512 15.953 43284.2 43286.3 15716 0.010043 0.390453 0.00699469
546 2 8.86736 18.1512 18.232 43284.7 43286.9 15714.7 0.0464463 0.203716 -0.0011897
547 2 4.83674 16.755 20.511 43156.5 43158.9 13508.5 -0.0353502 0.475277 -0.0179201