3074
 Atoms. Timestep: 36
Pt 0 0 0
Pt 3.22452 2.39569e-05 2.2813
Pt 1.61224 44.68 4.55971
Pt 2.41837 1.39625 0
Pt 0.806134 1.39628 2.28131
Pt 4.03064 1.39635 4.55967
Pt -7.06518e-05 44.68 6.83808
Pt 3.22431 44.68 9.1163
Pt 1.61193 44.68 11.3947
Pt 2.41832 1.39636 6.83801
Pt 0.805972 1.39633 9.11639
Pt 4.03028 1.39635 11.3946
Pt -0.000441413 3.25999e-06 13.6732
Pt 3.22372 -5.17594e-05 15.9513
Pt 1.61146 -0.000117734 18.2299
Pt 2.41788 1.39627 13.673
Pt 0.805538 1.39616 15.9515
Pt 4.02967 1.39597 18.2297
Pt 38.6934 -0.000174788 20.5086
Pt 3.22373 -0.00026738 22.787
Pt 1.61199 -0.000264777 25.0687
Pt 2.41756 1.39585 20.5084
Pt 0.805684 1.39578 22.7872
Pt 4.03002 1.39568 25.0685
Pt 0 2.7925 0
Pt 3.22452 2.79257 2.28131
Pt 1.61225 2.7926 4.5597
Pt 2.41837 4.18874 0
Pt 0.806122 4.18881 2.28131
Pt 4.03066 4.18894 4.55968
Pt -5.57179e-05 2.7926 6.83808
Pt 3.22436 2.79267 9.1163
Pt 1.612 2.79261 11.3947
Pt 2.41835 4.18894 6.83802
Pt 0.806026 4.1889 9.11638
Pt 4.03041 4.18894 11.3946
Pt -0.000354242 2.79252 13.6731
Pt 3.22384 2.79235 15.9513
Pt 1.61157 2.79216 18.2299
Pt 2.41803 4.18879 13.673
Pt 0.805707 4.1886 15.9514
Pt 4.02983 4.18822 18.2296
Pt 38.6935 2.792 20.5085
Pt 3.22373 2.79171 22.7869
Pt 1.61197 2.79172 25.0687
Pt 2.41767 4.18799 20.5083
Pt 0.805763 4.18784 22.7871
Pt 4.02989 4.18765 25.0685
Pt 0 5.58499 0
Pt 3.22452 5.58511 2.28131
Pt 1.61225 5.58515 4.5597
Pt 2.41837 6.98124 0
Pt 0.80612 6.98132 2.28131
Pt 4.03067 6.98149 4.5597
Pt 38.6939 5.58515 6.83807
Pt 3.22446 5.58526 9.11632
Pt 1.61212 5.58517 11.3947
Pt 2.41839 6.98149 6.83802
Pt 0.806093 6.98146 9.11638
Pt 4.03059 6.98151 11.3946
Pt -0.000188388 5.58504 13.6731
Pt 3.22408 5.5848 15.9513
Pt 1.6118 5.58451 18.2298
Pt 2.41826 6.98132 13.673
Pt 0.805974 6.98109 15.9514
Pt 4.03009 6.98055 18.2296
Pt 38.6937 5.58423 20.5084
Pt 3.22372 5.58373 22.7868
Pt 1.61189 5.58377 25.0686
Pt 2.41786 6.98022 20.5082
Pt 0.805885 6.97999 22.7869
Pt 4.02961 6.97966 25.0684
Pt 0 8.37749 0
Pt 3.22451 8.37763 2.2813
Pt 1.61225 8.37767 4.5597
Pt 2.41837 9.77373 0
Pt 0.806102 9.77383 2.28131
Pt 4.03067 9.77401 4.55972
Pt 38.6939 8.37768 6.83806
Pt 3.22456 8.37781 9.11635
Pt 1.61226 8.37771 11.3947
Pt 2.4184 9.77401 6.83804
Pt 0.806145 9.77398 9.11638
Pt 4.03077 9.77406 11.3947
Pt 1.34084e-05 8.37756 13.6731
Pt 3.22441 8.37729 15.9513
Pt 1.61215 8.37693 18.2297
Pt 2.4185 9.77386 13.673
Pt 0.80629 9.7736 15.9514
Pt 4.03046 9.77302 18.2296
Pt 38.694 8.37658 20.5083
Pt 3.22366 8.37587 22.7868
Pt 1.61169 8.37594 25.0685
Pt 2.41814 9.7726 20.5081
Pt 0.806023 9.77232 22.7868
Pt 4.02905 9.77176 25.0684
Pt 0 11.17 0
Pt 3.2245 11.1701 2.28131
Pt 1.61222 11.1702 4.55972
Pt 2.41837 12.5662 0
Pt 0.806069 12.5663 2.28132
Pt 4.03064 12.5665 4.55976
Pt 38.6939 11.1702 6.83807
Pt 3.2246 11.1703 9.11641
Pt 1.61237 11.1702 11.3947
Pt 2.41838 12.5665 6.83809
Pt 0.80614 12.5665 9.11643
Pt 4.03085 12.5665 11.3948
Pt 0.000194854 11.1701 13.6731
Pt 3.22474 11.1698 15.9514
Pt 1.61254 11.1695 18.2297
Pt 2.41867 12.5664 13.6731
Pt 0.806557 12.5661 15.9514
Pt 4.03081 12.5656 18.2298
Pt 38.6944 11.1691 20.5082
Pt 3.22357 11.1682 22.7868
Pt 1.61132 11.1683 25.0684
Pt 2.41843 12.5652 20.5082
Pt 0.806126 12.5649 22.7868
Pt 4.02821 12.5641 25.0685
Pt 0 13.9625 0
Pt 3.22446 13.9626 2.28134
Pt 1.61217 13.9627 4.55976
Pt 2.41837 15.3587 0
Pt 0.806021 15.3588 2.28135
Pt 4.03059 15.3589 4.55983
Pt 38.6938 13.9627 6.83812
Pt 3.22458 13.9628 9.11652
Pt 1.61239 13.9627 11.3948
Pt 2.41831 15.3589 6.83818
Pt 0.806065 15.3589 9.11653
Pt 4.03083 15.359 11.395
Pt 0.000282559 13.9626 13.6731
Pt 3.22495 13.9624 15.9516
Pt 1.61283 13.9621 18.2299
Pt 2.4187 15.3588 13.6733
Pt 0.806681 15.3587 15.9516
Pt 4.03101 15.3583 18.2302
Pt 38.6947 13.9617 20.5083
Pt 3.22349 13.9609 22.7869
Pt 1.61084 13.961 25.0686
Pt 2.41862 15.358 20.5085
Pt 0.806141 15.3577 22.787
Pt 4.0273 15.3569 25.0688
Pt 0 16.755 0
Pt 3.22442 16.7551 2.28138
Pt 1.61209 16.7551 4.55982
Pt 2.41837 18.1512 0
Pt 0.805969 18.1513 2.28138
Pt 4.03053 18.1513 4.5599
Pt 38.6937 16.7551 6.83821
Pt 3.2245 16.7552 9.11666
Pt 1.61232 16.7551 11.395
Pt 2.41822 18.1513 6.83828
Pt 0.805956 18.1513 9.11665
Pt 4.03075 18.1514 11.3952
Pt 0.000249771 16.7551 13.6733
Pt 3.22499 16.7549 15.9519
Pt 1.61293 16.7547 18.2301
Pt 2.41865 18.1513 13.6735
Pt 0.80666 18.1512 15.9518
Pt 4.03104 18.151 18.2305
Pt 38.6948 16.7545 20.5085
Pt 3.22342 16.7539 22.7873
Pt 1.61038 16.7539 25.0688
Pt 2.41867 18.1508 20.5088
Pt 0.806087 18.1507 22.7872
Pt 4.02661 18.1501 25.0691
Pt 0 19.5475 0
Pt 3.22438 19.5475 2.28139
Pt 1.61203 19.5475 4.55987
Pt 2.41837 20.9437 0
Pt 0.805952 20.9437 2.28139
Pt 4.03049 20.9437 4.55993
Pt 38.6936 19.5475 6.83829
Pt 3.22442 19.5475 9.11677
Pt 1.61224 19.5475 11.3951
Pt 2.41818 20.9437 6.83832
Pt 0.805904 20.9437 9.11671
Pt 4.0307 20.9437 11.3953
Pt 38.6941 19.5475 13.6734
Pt 3.22495 19.5475 15.9521
Pt 1.61292 19.5474 18.2303
Pt 2.41861 20.9437 13.6736
Pt 0.806626 20.9437 15.9519
Pt 4.03102 20.9437 18.2307
Pt 38.6948 19.5473 20.5087
Pt 3.22337 19.5471 22.7875
Pt 1.61011 19.5471 25.069
Pt 2.41866 20.9437 20.5089
Pt 0.806052 20.9437 22.7873
Pt 4.02636 20.9437 25.0693
Pt 0 22.34 0
Pt 3.22438 22.3399 2.28139
Pt 1.61203 22.3399 4.55987
Pt 2.41837 23.7362 0
Pt 0.805969 23.7362 2.28138
Pt 4.03053 23.7361 4.5599
Pt 38.6936 22.3399 6.83829
Pt 3.22442 22.3399 9.11677
Pt 1.61224 22.3399 11.3951
Pt 2.41822 23.7361 6.83828
Pt 0.805956 23.7361 9.11665
Pt 4.03075 23.7361 11.3952
Pt 38.6941 22.3399 13.6734
Pt 3.22495 22.34 15.9521
Pt 1.61292 22.34 18.2303
Pt 2.41865 23.7361 13.6735
Pt 0.80666 23.7362 15.9518
Pt 4.03104 23.7364 18.2305
Pt 38.6948 22.3401 20.5087
Pt 3.22337 22.3403 22.7875
Pt 1.61011 22.3403 25.069
Pt 2.41867 23.7366 20.5088
Pt 0.806087 23.7367 22.7872
Pt 4.02661 23.7373 25.0691
Pt 0 25.1325 0
Pt 3.22442 25.1324 2.28138
Pt 1.61209 25.1323 4.55982
Pt 2.41837 26.5287 0
Pt 0.806021 26.5286 2.28135
Pt 4.03059 26.5285 4.55983
Pt 38.6937 25.1323 6.83821
Pt 3.2245 25.1323 9.11666
Pt 1.61232 25.1323 11.395
Pt 2.41831 26.5285 6.83818
Pt 0.806065 26.5285 9.11653
Pt 4.03083 26.5284 11.395
Pt 0.000249771 25.1324 13.6733
Pt 3.22499 25.1325 15.9519
Pt 1.61293 25.1327 18.2301
Pt 2.4187 26.5286 13.6733
Pt 0.806681 26.5288 15.9516
Pt 4.03101 26.5291 18.2302
Pt 38.6948 25.1329 20.5085
Pt 3.22342 25.1335 22.7873
Pt 1.61038 25.1335 25.0688
Pt 2.41862 26.5295 20.5085
Pt 0.806141 26.5297 22.787
Pt 4.0273 26.5306 25.0688
Pt 0 27.925 0
Pt 3.22446 27.9248 2.28134
Pt 1.61217 27.9248 4.55976
Pt 2.41837 29.3212 0
Pt 0.806069 29.3211 2.28132
Pt 4.03064 29.3209 4.55976
Pt 38.6938 27.9248 6.83812
Pt 3.22458 27.9247 9.11652
Pt 1.61239 27.9247 11.3948
Pt 2.41838 29.3209 6.83809
Pt 0.80614 29.321 9.11643
Pt 4.03085 29.3209 11.3948
Pt 0.000282559 27.9248 13.6731
Pt 3.22495 27.925 15.9516
Pt 1.61283 27.9254 18.2299
Pt 2.41867 29.3211 13.6731
Pt 0.806557 29.3213 15.9514
Pt 4.03081 29.3218 18.2298
Pt 38.6947 27.9257 20.5083
Pt 3.22349 27.9265 22.7869
Pt 1.61084 27.9265 25.0686
Pt 2.41843 29.3222 20.5082
Pt 0.806126 29.3225 22.7868
Pt 4.02821 29.3233 25.0685
Pt 0 30.7174 0
Pt 3.2245 30.7173 2.28131
Pt 1.61222 30.7173 4.55972
Pt 2.41837 32.1137 0
Pt 0.806102 32.1136 2.28131
Pt 4.03067 32.1134 4.55972
Pt 38.6939 30.7173 6.83807
Pt 3.2246 30.7171 9.11641
Pt 1.61237 30.7172 11.3947
Pt 2.4184 32.1134 6.83804
Pt 0.806145 32.1134 9.11638
Pt 4.03077 32.1134 11.3947
Pt 0.000194854 30.7173 13.6731
Pt 3.22474 30.7176 15.9514
Pt 1.61254 30.718 18.2297
Pt 2.4185 32.1136 13.673
Pt 0.80629 32.1138 15.9514
Pt 4.03046 32.1144 18.2296
Pt 38.6944 30.7184 20.5082
Pt 3.22357 30.7192 22.7868
Pt 1.61132 30.7191 25.0684
Pt 2.41814 32.1148 20.5081
Pt 0.806023 32.1151 22.7868
Pt 4.02905 32.1157 25.0684
Pt 0 33.5099 0
Pt 3.22451 33.5098 2.2813
Pt 1.61225 33.5098 4.5597
Pt 2.41837 34.9062 0
Pt 0.80612 34.9061 2.28131
Pt 4.03067 34.9059 4.5597
Pt 38.6939 33.5098 6.83806
Pt 3.22456 33.5096 9.11635
Pt 1.61226 33.5097 11.3947
Pt 2.41839 34.9059 6.83802
Pt 0.806093 34.906 9.11638
Pt 4.03059 34.9059 11.3946
Pt 1.34084e-05 33.5099 13.6731
Pt 3.22441 33.5101 15.9513
Pt 1.61215 33.5105 18.2297
Pt 2.41826 34.9061 13.673
Pt 0.805974 34.9063 15.9514
Pt 4.03009 34.9069 18.2296
Pt 38.694 33.5109 20.5083
Pt 3.22366 33.5116 22.7868
Pt 1.61169 33.5115 25.0685
Pt 2.41786 34.9072 20.5082
Pt 0.805885 34.9074 22.7869
Pt 4.02961 34.9078 25.0684
Pt 0 36.3024 0
Pt 3.22452 36.3023 2.28131
Pt 1.61225 36.3023 4.5597
Pt 2.41837 37.6987 0
Pt 0.806122 37.6986 2.28131
Pt 4.03066 37.6985 4.55968
Pt 38.6939 36.3023 6.83807
Pt 3.22446 36.3022 9.11632
Pt 1.61212 36.3023 11.3947
Pt 2.41835 37.6985 6.83802
Pt 0.806026 37.6985 9.11638
Pt 4.03041 37.6985 11.3946
Pt -0.000188388 36.3024 13.6731
Pt 3.22408 36.3026 15.9513
Pt 1.6118 36.3029 18.2298
Pt 2.41803 37.6986 13.673
Pt 0.805707 37.6988 15.9514
Pt 4.02983 37.6992 18.2296
Pt 38.6937 36.3032 20.5084
Pt 3.22372 36.3037 22.7868
Pt 1.61189 36.3037 25.0686
Pt 2.41767 37.6994 20.5083
Pt 0.805763 37.6996 22.7871
Pt 4.02989 37.6998 25.0685
Pt 0 39.0949 0
Pt 3.22452 39.0949 2.28131
Pt 1.61225 39.0948 4.5597
Pt 2.41837 40.4912 0
Pt 0.806134 40.4911 2.28131
Pt 4.03064 40.4911 4.55967
Pt -5.57179e-05 39.0948 6.83808
Pt 3.22436 39.0948 9.1163
Pt 1.612 39.0948 11.3947
Pt 2.41832 40.4911 6.83801
Pt 0.805972 40.4911 9.11639
Pt 4.03028 40.4911 11.3946
Pt -0.000354242 39.0949 13.6731
Pt 3.22384 39.0951 15.9513
Pt 1.61157 39.0953 18.2299
Pt 2.41788 40.4912 13.673
Pt 0.805538 40.4913 15.9515
Pt 4.02967 40.4915 18.2297
Pt 38.6935 39.0954 20.5085
Pt 3.22373 39.0957 22.7869
Pt 1.61197 39.0957 25.0687
Pt 2.41756 40.4916 20.5084
Pt 0.805684 40.4917 22.7872
Pt 4.03002 40.4917 25.0685
Pt 0 41.8874 0
Pt 3.22452 41.8874 2.2813
Pt 1.61224 41.8874 4.55971
Pt 2.41837 43.2837 0
Pt 0.806136 43.2837 2.28131
Pt 4.03063 43.2837 4.55967
Pt -7.06518e-05 41.8874 6.83808
Pt 3.22431 41.8874 9.1163
Pt 1.61193 41.8874 11.3947
Pt 2.4183 43.2837 6.83802
Pt 0.805956 43.2837 9.1164
Pt 4.03023 43.2837 11.3946
Pt -0.000441413 41.8874 13.6732
Pt 3.22372 41.8875 15.9513
Pt 1.61146 41.8875 18.2299
Pt 2.41782 43.2837 13.673
Pt 0.805482 43.2837 15.9515
Pt 4.02962 43.2837 18.2297
Pt 38.6934 41.8876 20.5086
Pt 3.22373 41.8877 22.787
Pt 1.61199 41.8877 25.0687
Pt 2.41752 43.2837 20.5084
Pt 0.805656 43.2837 22.7872
Pt 4.03005 43.2837 25.0685
Pt 4.83674 0 0
Pt 8.06128 4.39959e-05 2.28127
Pt 6.44901 6.60477e-05 4.55964
Pt 7.25512 1.39625 0
Pt 5.64291 1.39632 2.28129
Pt 8.8674 1.3964 4.55962
Pt 4.83668 7.48062e-05 6.83795
Pt 8.061 9.5821e-05 9.11613
Pt 6.44856 6.35832e-05 11.3944
Pt 7.25506 1.39643 6.83791
Pt 5.64269 1.39641 9.11621
Pt 8.86693 1.39639 11.3944
Pt 4.83611 9.82545e-06 13.6728
Pt 8.0602 -9.1276e-05 15.951
Pt 6.44781 -0.000182393 18.2295
Pt 7.25445 1.39627 13.6727
Pt 5.642 1.39611 15.9511
Pt 8.86606 1.39579 18.2293
Pt 4.83565 -0.000241394 20.5082
Pt 8.05997 44.6795 22.7866
Pt 6.44816 44.6796 25.0683
Pt 7.2538 1.39564 20.508
Pt 5.64181 1.39562 22.7868
Pt 8.8663 1.39543 25.0682
Pt 4.83674 2.7925 0
Pt 8.0613 2.79263 2.28129
Pt 6.44904 2.79269 4.55965
Pt 7.25512 4.18874 0
Pt 5.64292 4.18888 2.2813
Pt 8.86745 4.18904 4.55967
Pt 4.83672 2.7927 6.83796
Pt 8.06109 2.79277 9.11618
Pt 6.44867 2.79269 11.3945
Pt 7.25515 4.18908 6.83796
Pt 5.64279 4.18904 9.11625
Pt 8.86712 4.18903 11.3945
Pt 4.83624 2.79253 13.6728
Pt 8.06032 2.79225 15.951
Pt 6.4479 2.79197 18.2295
Pt 7.25465 4.18881 13.6728
Pt 5.64219 4.18851 15.9511
Pt 8.86617 4.18789 18.2294
Pt 4.83569 2.79178 20.5081
Pt 8.05989 2.79133 22.7866
Pt 6.44804 2.79151 25.0683
Pt 7.25381 4.18757 20.5079
Pt 5.64174 4.18749 22.7867
Pt 8.86607 4.18712 25.0682
Pt 4.83674 5.58499 0
Pt 8.06132 5.5852 2.28131
Pt 6.44907 5.58529 4.55969
Pt 7.25512 6.98124 0
Pt 5.64292 6.98142 2.28131
Pt 8.86751 6.98166 4.55974
Pt 4.83678 5.5853 6.83799
Pt 8.06126 5.58544 9.11628
Pt 6.44888 5.5853 11.3946
Pt 7.25525 6.9817 6.83804
Pt 5.64293 6.98164 9.11632
Pt 8.86739 6.9817 11.3946
Pt 4.83647 5.58508 13.6729
Pt 8.06059 5.58466 15.9511
Pt 6.44809 5.58419 18.2295
Pt 7.25496 6.98139 13.6729
Pt 5.6425 6.98098 15.9512
Pt 8.86638 6.98013 18.2294
Pt 4.83577 5.58386 20.5081
Pt 8.05969 5.58306 22.7866
Pt 6.44776 5.58337 25.0683
Pt 7.25383 6.97958 20.5079
Pt 5.64157 6.97942 22.7867
Pt 8.8656 6.97879 25.0681
Pt 4.83674 8.37749 0
Pt 8.06134 8.37774 2.28135
Pt 6.44911 8.37785 4.55973
Pt 7.25512 9.77373 0
Pt 5.64292 9.77393 2.28133
Pt 8.86756 9.77421 4.55985
Pt 4.83684 8.37785 6.83804
Pt 8.06145 8.37806 9.11643
Pt 6.44912 8.3779 11.3947
Pt 7.25532 9.77425 6.83814
Pt 5.64305 9.77419 9.11641
Pt 8.86768 9.77435 11.3949
Pt 4.83676 8.37763 13.6729
Pt 8.06097 8.3772 15.9512
Pt 6.44838 8.37655 18.2295
Pt 7.25531 9.77399 13.673
Pt 5.64288 9.77352 15.9513
Pt 8.86671 9.77256 18.2296
Pt 4.8359 8.37606 20.508
Pt 8.05932 8.37483 22.7865
Pt 6.4472 8.37524 25.0682
Pt 7.25386 9.77177 20.5079
Pt 5.64125 9.77148 22.7866
Pt 8.86468 9.7704 25.0682
Pt 4.83674 11.17 0
Pt 8.06134 11.1702 2.28139
Pt 6.44911 11.1703 4.5598
Pt 7.25512 12.5662 0
Pt 5.6429 12.5664 2.28136
Pt 8.86757 12.5667 4.55997
Pt 4.83686 11.1704 6.83811
Pt 8.06157 11.1706 9.11663
Pt 6.44929 11.1704 11.3948
Pt 7.25533 12.5667 6.83829
Pt 5.64308 12.5667 9.11655
Pt 8.86784 12.5669 11.3952
Pt 4.83701 11.1702 13.6731
Pt 8.06141 11.1698 15.9515
Pt 6.44877 11.1691 18.2297
Pt 7.25553 12.5665 13.6734
Pt 5.64319 12.5661 15.9515
Pt 8.86717 12.5653 18.23
Pt 4.8361 11.1685 20.5081
Pt 8.05865 11.1667 22.7866
Pt 6.4461 11.1672 25.0683
Pt 7.25402 12.5643 20.5082
Pt 5.6409 12.5639 22.7868
Pt 8.86261 12.5619 25.0684
Pt 4.83674 13.9625 0
Pt 8.06133 13.9627 2.28145
Pt 6.44909 13.9628 4.55988
Pt 7.25512 15.3587 0
Pt 5.64287 15.3589 2.2814
Pt 8.86754 15.3591 4.56011
Pt 4.83682 13.9628 6.83821
Pt 8.06157 13.963 9.11689
Pt 6.44933 13.9629 11.3951
Pt 7.25528 15.3591 6.83846
Pt 5.64303 15.3591 9.11674
Pt 8.86781 15.3593 11.3957
Pt 4.83712 13.9627 13.6733
Pt 8.06167 13.9625 15.952
Pt 6.44908 13.9618 18.2301
Pt 7.25556 15.359 13.6738
Pt 5.64331 15.3587 15.952
Pt 8.86742 15.3581 18.2308
Pt 4.83632 13.9612 20.5084
Pt 8.05796 13.9591 22.787
Pt 6.44447 13.9594 25.0686
Pt 7.25422 15.3572 20.5089
Pt 5.64067 15.3568 22.7872
Pt 8.85941 15.354 25.0691
Pt 4.83674 16.755 0
Pt 8.0613 16.7551 2.2815
Pt 6.44903 16.7552 4.55997
Pt 7.25512 18.1512 0
Pt 5.64283 18.1513 2.28143
Pt 8.86748 18.1514 4.56023
Pt 4.83675 16.7552 6.83834
Pt 8.06148 16.7554 9.11717
Pt 6.44926 16.7553 11.3954
Pt 7.25521 18.1514 6.83861
Pt 5.64295 18.1514 9.11692
Pt 8.86767 18.1515 11.3961
Pt 4.83709 16.7551 13.6736
Pt 8.06166 16.755 15.9527
Pt 6.44919 16.7546 18.2307
Pt 7.25545 18.1514 13.6742
Pt 5.64326 18.1512 15.9524
Pt 8.86738 18.1509 18.2318
Pt 4.83645 16.7542 20.5089
Pt 8.05762 16.7525 22.7878
Pt 6.44287 16.7525 25.0692
Pt 7.25432 18.1504 20.5097
Pt 5.64059 18.1501 22.7878
Pt 8.85663 18.148 25.0702
Pt 4.83674 19.5475 0
Pt 8.06127 19.5475 2.28154
Pt 6.44898 19.5475 4.56004
Pt 7.25512 20.9437 0
Pt 5.64282 20.9437 2.28144
Pt 8.86746 20.9437 4.56028
Pt 4.83669 19.5475 6.83842
Pt 8.0614 19.5476 9.11737
Pt 6.44917 19.5476 11.3956
Pt 7.25517 20.9437 6.83867
Pt 5.6429 20.9437 9.117
Pt 8.8676 20.9437 11.3963
Pt 4.83702 19.5475 13.6738
Pt 8.06154 19.5475 15.9532
Pt 6.44915 19.5473 18.2312
Pt 7.25539 20.9437 13.6744
Pt 5.64322 20.9437 15.9525
Pt 8.8673 20.9437 18.2323
Pt 4.83647 19.5472 20.5093
Pt 8.05761 19.5466 22.7887
Pt 6.44192 19.5465 25.0697
Pt 7.25432 20.9437 20.51
Pt 5.64056 20.9437 22.788
Pt 8.85561 20.9437 25.0707
Pt 4.83674 22.34 0
Pt 8.06127 22.3399 2.28154
Pt 6.44898 22.3399 4.56004
Pt 7.25512 23.7362 0
Pt 5.64283 23.7361 2.28143
Pt 8.86748 23.736 4.56023
Pt 4.83669 22.3399 6.83842
Pt 8.0614 22.3398 9.11737
Pt 6.44917 22.3399 11.3956
Pt 7.25521 23.736 6.83861
Pt 5.64295 23.736 9.11692
Pt 8.86767 23.7359 11.3961
Pt 4.83702 22.3399 13.6738
Pt 8.06154 22.3399 15.9532
Pt 6.44915 22.3401 18.2312
Pt 7.25545 23.736 13.6742
Pt 5.64326 23.7362 15.9524
Pt 8.86738 23.7365 18.2318
Pt 4.83647 22.3402 20.5093
Pt 8.05761 22.3409 22.7887
Pt 6.44192 22.3409 25.0697
Pt 7.25432 23.737 20.5097
Pt 5.64059 23.7373 22.7878
Pt 8.85663 23.7394 25.0702
Pt 4.83674 25.1325 0
Pt 8.0613 25.1323 2.2815
Pt 6.44903 25.1322 4.55997
Pt 7.25512 26.5287 0
Pt 5.64287 26.5286 2.2814
Pt 8.86754 26.5283 4.56011
Pt 4.83675 25.1322 6.83834
Pt 8.06148 25.1321 9.11717
Pt 6.44926 25.1322 11.3954
Pt 7.25528 26.5283 6.83846
Pt 5.64303 26.5284 9.11674
Pt 8.86781 26.5282 11.3957
Pt 4.83709 25.1323 13.6736
Pt 8.06166 25.1324 15.9527
Pt 6.44919 25.1329 18.2307
Pt 7.25556 26.5284 13.6738
Pt 5.64331 26.5288 15.952
Pt 8.86742 26.5294 18.2308
Pt 4.83645 25.1333 20.5089
Pt 8.05762 25.135 22.7878
Pt 6.44287 25.1349 25.0692
Pt 7.25422 26.5302 20.5089
Pt 5.64067 26.5307 22.7872
Pt 8.85941 26.5334 25.0691
Pt 4.83674 27.925 0
Pt 8.06133 27.9247 2.28145
Pt 6.44909 27.9246 4.55988
Pt 7.25512 29.3212 0
Pt 5.6429 29.321 2.28136
Pt 8.86757 29.3207 4.55997
Pt 4.83682 27.9246 6.83821
Pt 8.06157 27.9244 9.11689
Pt 6.44933 27.9245 11.3951
Pt 7.25533 29.3207 6.83829
Pt 5.64308 29.3208 9.11655
Pt 8.86784 29.3205 11.3952
Pt 4.83712 27.9248 13.6733
Pt 8.06167 27.925 15.952
Pt 6.44908 27.9256 18.2301
Pt 7.25553 29.3209 13.6734
Pt 5.64319 29.3213 15.9515
Pt 8.86717 29.3222 18.23
Pt 4.83632 27.9262 20.5084
Pt 8.05796 27.9283 22.787
Pt 6.44447 27.928 25.0686
Pt 7.25402 29.3231 20.5082
Pt 5.6409 29.3236 22.7868
Pt 8.86261 29.3255 25.0684
Pt 4.83674 30.7174 0
Pt 8.06134 30.7172 2.28139
Pt 6.44911 30.7171 4.5598
Pt 7.25512 32.1137 0
Pt 5.64292 32.1135 2.28133
Pt 8.86756 32.1132 4.55985
Pt 4.83686 30.7171 6.83811
Pt 8.06157 30.7168 9.11663
Pt 6.44929 30.717 11.3948
Pt 7.25532 32.1132 6.83814
Pt 5.64305 32.1132 9.11641
Pt 8.86768 32.1131 11.3949
Pt 4.83701 30.7173 13.6731
Pt 8.06141 30.7176 15.9515
Pt 6.44877 30.7183 18.2297
Pt 7.25531 32.1134 13.673
Pt 5.64288 32.1139 15.9513
Pt 8.86671 32.1149 18.2296
Pt 4.8361 30.7189 20.5081
Pt 8.05865 30.7207 22.7866
Pt 6.4461 30.7203 25.0683
Pt 7.25386 32.1157 20.5079
Pt 5.64125 32.1159 22.7866
Pt 8.86468 32.117 25.0682
Pt 4.83674 33.5099 0
Pt 8.06134 33.5097 2.28135
Pt 6.44911 33.5096 4.55973
Pt 7.25512 34.9062 0
Pt 5.64292 34.906 2.28131
Pt 8.86751 34.9058 4.55974
Pt 4.83684 33.5096 6.83804
Pt 8.06145 33.5094 9.11643
Pt 6.44912 33.5095 11.3947
Pt 7.25525 34.9057 6.83804
Pt 5.64293 34.9058 9.11632
Pt 8.86739 34.9057 11.3946
Pt 4.83676 33.5098 13.6729
Pt 8.06097 33.5102 15.9512
Pt 6.44838 33.5109 18.2295
Pt 7.25496 34.906 13.6729
Pt 5.6425 34.9065 15.9512
Pt 8.86638 34.9073 18.2294
Pt 4.8359 33.5114 20.508
Pt 8.05932 33.5126 22.7865
Pt 6.4472 33.5122 25.0682
Pt 7.25383 34.9079 20.5079
Pt 5.64157 34.908 22.7867
Pt 8.8656 34.9086 25.0681
Pt 4.83674 36.3024 0
Pt 8.06132 36.3022 2.28131
Pt 6.44907 36.3021 4.55969
Pt 7.25512 37.6987 0
Pt 5.64292 37.6986 2.2813
Pt 8.86745 37.6984 4.55967
Pt 4.83678 36.3021 6.83799
Pt 8.06126 36.302 9.11628
Pt 6.44888 36.3021 11.3946
Pt 7.25515 37.6983 6.83796
Pt 5.64279 37.6984 9.11625
Pt 8.86712 37.6984 11.3945
Pt 4.83647 36.3024 13.6729
Pt 8.06059 36.3028 15.9511
Pt 6.44809 36.3032 18.2295
Pt 7.25465 37.6986 13.6728
Pt 5.64219 37.6989 15.9511
Pt 8.86617 37.6995 18.2294
Pt 4.83577 36.3036 20.5081
Pt 8.05969 36.3044 22.7866
Pt 6.44776 36.3041 25.0683
Pt 7.25381 37.6999 20.5079
Pt 5.64174 37.6999 22.7867
Pt 8.86607 37.7003 25.0682
Pt 4.83674 39.0949 0
Pt 8.0613 39.0948 2.28129
Pt 6.44904 39.0947 4.55965
Pt 7.25512 40.4912 0
Pt 5.64291 40.4911 2.28129
Pt 8.8674 40.491 4.55962
Pt 4.83672 39.0947 6.83796
Pt 8.06109 39.0947 9.11618
Pt 6.44867 39.0947 11.3945
Pt 7.25506 40.491 6.83791
Pt 5.64269 40.491 9.11621
Pt 8.86693 40.491 11.3944
Pt 4.83624 39.0949 13.6728
Pt 8.06032 39.0952 15.951
Pt 6.4479 39.0955 18.2295
Pt 7.25445 40.4912 13.6727
Pt 5.642 40.4913 15.9511
Pt 8.86606 40.4916 18.2293
Pt 4.83569 39.0956 20.5081
Pt 8.05989 39.0961 22.7866
Pt 6.44804 39.0959 25.0683
Pt 7.2538 40.4918 20.508
Pt 5.64181 40.4918 22.7868
Pt 8.8663 40.492 25.0682
Pt 4.83674 41.8874 0
Pt 8.06128 41.8874 2.28127
Pt 6.44901 41.8874 4.55964
Pt 7.25512 43.2837 0
Pt 5.64291 43.2837 2.28128
Pt 8.86737 43.2837 4.55961
Pt 4.83668 41.8874 6.83795
Pt 8.061 41.8873 9.11613
Pt 6.44856 41.8874 11.3944
Pt 7.25504 43.2837 6.83789
Pt 5.64265 43.2837 9.1162
Pt 8.86686 43.2837 11.3943
Pt 4.83611 41.8874 13.6728
Pt 8.0602 41.8875 15.951
Pt 6.44781 41.8876 18.2295
Pt 7.25438 43.2837 13.6727
Pt 5.64193 43.2837 15.9511
Pt 8.86602 43.2837 18.2293
Pt 4.83565 41.8877 20.5082
Pt 8.05997 41.8878 22.7866
Pt 6.44816 41.8878 25.0683
Pt 7.2538 43.2837 20.508
Pt 5.64183 43.2837 22.7868
Pt 8.86636 43.2837 25.0681
Pt 9.67349 0 0
Pt 12.898 4.68487e-05 2.28127
Pt 11.2857 7.98439e-05 4.55959
Pt 12.0919 1.39625 0
Pt 10.4797 1.39634 2.28127
Pt 13.7041 1.3964 4.55961
Pt 9.6734 9.65381e-05 6.83786
Pt 12.8977 8.65077e-05 9.11608
Pt 11.2852 6.33833e-05 11.3943
Pt 12.0918 1.39644 6.83787
Pt 10.4794 1.39644 9.11611
Pt 13.7036 1.39636 11.3943
Pt 9.6727 -1.13515e-06 13.6726
Pt 12.8968 44.6798 15.9508
Pt 11.2843 44.6796 18.2292
Pt 12.0911 1.39623 13.6725
Pt 10.4785 1.39602 15.9509
Pt 13.7027 1.3956 18.2292
Pt 9.672 44.6795 20.5078
Pt 12.8965 -0.000602408 22.7863
Pt 11.2846 -0.000510342 25.068
Pt 12.0903 1.39532 20.5077
Pt 10.4782 1.39527 22.7864
Pt 13.703 1.39496 25.068
Pt 9.67349 2.7925 0
Pt 12.898 2.79264 2.28128
Pt 11.2858 2.79274 4.55963
Pt 12.0919 4.18874 0
Pt 10.4797 4.18893 2.2813
Pt 13.7042 4.18905 4.55968
Pt 9.67347 2.79279 6.83791
Pt 12.8978 2.79277 9.11615
Pt 11.2853 2.7927 11.3944
Pt 12.0919 4.18914 6.83796
Pt 10.4795 4.18914 9.11621
Pt 13.7038 4.18901 11.3944
Pt 9.67284 2.79252 13.6726
Pt 12.8969 2.79211 15.9508
Pt 11.2844 2.79168 18.2292
Pt 12.0913 4.18878 13.6726
Pt 10.4787 4.18836 15.9509
Pt 13.7027 4.18752 18.2292
Pt 9.67198 2.79137 20.5078
Pt 12.8964 2.79068 22.7863
Pt 11.2845 2.79096 25.068
Pt 12.0902 4.18694 20.5077
Pt 10.478 4.1868 22.7864
Pt 13.7028 4.18609 25.0679
Pt 9.67349 5.58499 0
Pt 12.8981 5.58523 2.28132
Pt 11.2859 5.58539 4.55972
Pt 12.0919 6.98124 0
Pt 10.4797 6.98151 2.28135
Pt 13.7043 6.9817 4.5598
Pt 9.67359 5.58546 6.83801
Pt 12.898 5.58549 9.11631
Pt 11.2856 5.5854 11.3945
Pt 12.092 6.98183 6.83813
Pt 10.4798 6.98184 9.1164
Pt 13.7041 6.98174 11.3947
Pt 9.67312 5.58511 13.6728
Pt 12.8972 5.5845 15.951
Pt 11.2845 5.58377 18.2293
Pt 12.0916 6.98145 13.6729
Pt 10.479 6.98086 15.9511
Pt 13.7029 6.97963 18.2293
Pt 9.67194 5.5832 20.5078
Pt 12.8961 5.58194 22.7863
Pt 11.2841 5.58239 25.068
Pt 12.0901 6.97866 20.5077
Pt 10.4776 6.97833 22.7864
Pt 13.7023 6.97712 25.0679
Pt 9.67349 8.37749 0
Pt 12.8981 8.37781 2.28141
Pt 11.286 8.37801 4.55986
Pt 12.0919 9.77373 0
Pt 10.4798 9.77405 2.28142
Pt 13.7044 9.77432 4.56003
Pt 9.67373 8.3781 6.83817
Pt 12.8983 8.37823 9.11662
Pt 11.2859 8.37814 11.3948
Pt 12.0922 9.77449 6.83842
Pt 10.48 9.77451 9.1167
Pt 13.7045 9.77457 11.3952
Pt 9.67352 8.37778 13.673
Pt 12.8976 8.37713 15.9513
Pt 11.2847 8.37608 18.2295
Pt 12.0921 9.77428 13.6734
Pt 10.4795 9.77353 15.9514
Pt 13.7032 9.77209 18.2298
Pt 9.67188 8.37515 20.5079
Pt 12.8956 8.37319 22.7864
Pt 11.2835 8.37375 25.0681
Pt 12.09 9.77059 20.508
Pt 10.477 9.76987 22.7865
Pt 13.7015 9.76799 25.0681
Pt 9.67349 11.17 0
Pt 12.8982 11.1704 2.28153
Pt 11.286 11.1706 4.56005
Pt 12.0919 12.5662 0
Pt 10.4798 12.5665 2.2815
Pt 13.7044 12.5669 4.56035
Pt 9.67381 11.1707 6.83839
Pt 12.8985 11.1709 9.11716
Pt 11.2863 11.1709 11.3954
Pt 12.0923 12.567 6.83881
Pt 10.4801 12.5671 9.11709
Pt 13.7049 12.5674 11.3962
Pt 9.67393 11.1705 13.6734
Pt 12.8982 11.17 15.9521
Pt 11.2852 11.1687 18.2299
Pt 12.0926 12.5671 13.6743
Pt 10.4801 12.5663 15.9521
Pt 13.7038 12.565 18.2309
Pt 9.67182 11.1673 20.508
Pt 12.8948 11.1644 22.7868
Pt 11.2821 11.1649 25.0683
Pt 12.0899 12.5629 20.5086
Pt 10.4758 12.5615 22.7867
Pt 13.6998 12.5586 25.0689
Pt 9.67349 13.9625 0
Pt 12.8982 13.9628 2.28167
Pt 11.286 13.963 4.56027
Pt 12.0919 15.3587 0
Pt 10.4798 15.359 2.28159
Pt 13.7045 15.3593 4.56073
Pt 9.67381 13.9631 6.83864
Pt 12.8986 13.9635 9.11788
Pt 11.2864 13.9634 11.396
Pt 12.0923 15.3594 6.83925
Pt 10.4801 15.3594 9.11753
Pt 13.705 15.3599 11.3974
Pt 9.6741 13.963 13.674
Pt 12.8989 13.9632 15.9535
Pt 11.2858 13.9617 18.2309
Pt 12.0927 15.3597 13.6754
Pt 10.4802 15.359 15.953
Pt 13.705 15.3586 18.2334
Pt 9.67202 13.9601 20.5086
Pt 12.8927 13.9556 22.7877
Pt 11.2781 13.9555 25.0689
Pt 12.0904 15.356 20.5099
Pt 10.4746 15.3539 22.7875
Pt 13.6912 15.3474 25.0713
Pt 9.67349 16.755 0
Pt 12.8982 16.7552 2.28181
Pt 11.286 16.7554 4.56049
Pt 12.0919 18.1512 0
Pt 10.4797 18.1514 2.28166
Pt 13.7044 18.1516 4.56105
Pt 9.67374 16.7554 6.83889
Pt 12.8985 16.7557 9.11863
Pt 11.2863 16.7557 11.3967
Pt 12.0922 18.1516 6.83962
Pt 10.4799 18.1516 9.11792
Pt 13.7048 18.152 11.3986
Pt 9.67399 16.7554 13.6747
Pt 12.8989 16.7557 15.9552
Pt 11.2859 16.7545 18.2324
Pt 12.0924 18.1518 13.6764
Pt 10.48 18.1514 15.9541
Pt 13.7045 18.1514 18.2358
Pt 9.67221 16.7533 20.5099
Pt 12.8911 16.7484 22.7893
Pt 11.2714 16.7475 25.0702
Pt 12.0904 18.1495 20.5121
Pt 10.4743 18.1482 22.7892
Pt 13.6762 18.14 25.0732
Pt 9.67349 19.5475 0
Pt 12.8981 19.5476 2.2819
Pt 11.2859 19.5476 4.56063
Pt 12.0919 20.9437 0
Pt 10.4797 20.9437 2.28169
Pt 13.7044 20.9437 4.56117
Pt 9.67367 19.5476 6.83906
Pt 12.8984 19.5478 9.11911
Pt 11.2861 19.5477 11.3972
Pt 12.0922 20.9437 6.83977
Pt 10.4799 20.9437 9.11808
Pt 13.7046 20.9437 11.399
Pt 9.67381 19.5476 13.6752
Pt 12.8983 19.5478 15.9565
Pt 11.2856 19.5473 18.2338
Pt 12.0922 20.9437 13.6768
Pt 10.4798 20.9437 15.9546
Pt 13.7037 20.9437 18.237
Pt 9.67227 19.5469 20.5111
Pt 12.8908 19.5442 22.7923
Pt 11.2667 19.5441 25.072
Pt 12.0903 20.9437 20.5137
Pt 10.4745 20.9437 22.7903
Pt 13.6693 20.9437 25.0748
Pt 9.67349 22.34 0
Pt 12.8981 22.3399 2.2819
Pt 11.2859 22.3398 4.56063
Pt 12.0919 23.7362 0
Pt 10.4797 23.7361 2.28166
Pt 13.7044 23.7359 4.56105
Pt 9.67367 22.3398 6.83906
Pt 12.8984 22.3397 9.11911
Pt 11.2861 22.3397 11.3972
Pt 12.0922 23.7358 6.83962
Pt 10.4799 23.7358 9.11792
Pt 13.7048 23.7354 11.3986
Pt 9.67381 22.3398 13.6752
Pt 12.8983 22.3397 15.9565
Pt 11.2856 22.3401 18.2338
Pt 12.0924 23.7356 13.6764
Pt 10.48 23.736 15.9541
Pt 13.7045 23.7361 18.2358
Pt 9.67227 22.3406 20.5111
Pt 12.8908 22.3433 22.7923
Pt 11.2667 22.3433 25.072
Pt 12.0904 23.738 20.5121
Pt 10.4743 23.7392 22.7892
Pt 13.6762 23.7474 25.0732
Pt 9.67349 25.1325 0
Pt 12.8982 25.1322 2.28181
Pt 11.286 25.1321 4.56049
Pt 12.0919 26.5287 0
Pt 10.4798 26.5284 2.28159
Pt 13.7045 26.5281 4.56073
Pt 9.67374 25.132 6.83889
Pt 12.8985 25.1317 9.11863
Pt 11.2863 25.1318 11.3967
Pt 12.0923 26.528 6.83925
Pt 10.4801 26.528 9.11753
Pt 13.705 26.5275 11.3974
Pt 9.67399 25.132 13.6747
Pt 12.8989 25.1317 15.9552
Pt 11.2859 25.1329 18.2324
Pt 12.0927 26.5278 13.6754
Pt 10.4802 26.5285 15.953
Pt 13.705 26.5288 18.2334
Pt 9.67221 25.1341 20.5099
Pt 12.8911 25.139 22.7893
Pt 11.2714 25.1399 25.0702
Pt 12.0904 26.5314 20.5099
Pt 10.4746 26.5335 22.7875
Pt 13.6912 26.54 25.0713
Pt 9.67349 27.925 0
Pt 12.8982 27.9246 2.28167
Pt 11.286 27.9244 4.56027
Pt 12.0919 29.3212 0
Pt 10.4798 29.3209 2.2815
Pt 13.7044 29.3206 4.56035
Pt 9.67381 27.9243 6.83864
Pt 12.8986 27.9239 9.11788
Pt 11.2864 27.924 11.396
Pt 12.0923 29.3204 6.83881
Pt 10.4801 29.3204 9.11709
Pt 13.7049 29.32 11.3962
Pt 9.6741 27.9244 13.674
Pt 12.8989 27.9243 15.9535
Pt 11.2858 27.9258 18.2309
Pt 12.0926 29.3203 13.6743
Pt 10.4801 29.3211 15.9521
Pt 13.7038 29.3224 18.2309
Pt 9.67202 27.9274 20.5086
Pt 12.8927 27.9318 22.7877
Pt 11.2781 27.9319 25.0689
Pt 12.0899 29.3246 20.5086
Pt 10.4758 29.326 22.7867
Pt 13.6998 29.3289 25.0689
Pt 9.67349 30.7174 0
Pt 12.8982 30.7171 2.28153
Pt 11.286 30.7169 4.56005
Pt 12.0919 32.1137 0
Pt 10.4798 32.1134 2.28142
Pt 13.7044 32.1131 4.56003
Pt 9.67381 30.7168 6.83839
Pt 12.8985 30.7165 9.11716
Pt 11.2863 30.7166 11.3954
Pt 12.0922 32.1129 6.83842
Pt 10.48 32.1129 9.1167
Pt 13.7045 32.1129 11.3952
Pt 9.67393 30.7169 13.6734
Pt 12.8982 30.7174 15.9521
Pt 11.2852 30.7187 18.2299
Pt 12.0921 32.1132 13.6734
Pt 10.4795 32.1139 15.9514
Pt 13.7032 32.1153 18.2298
Pt 9.67182 30.7201 20.508
Pt 12.8948 30.723 22.7868
Pt 11.2821 30.7225 25.0683
Pt 12.09 32.1168 20.508
Pt 10.477 32.1176 22.7865
Pt 13.7015 32.1194 25.0681
Pt 9.67349 33.5099 0
Pt 12.8981 33.5096 2.28141
Pt 11.286 33.5094 4.55986
Pt 12.0919 34.9062 0
Pt 10.4797 34.9059 2.28135
Pt 13.7043 34.9057 4.5598
Pt 9.67373 33.5093 6.83817
Pt 12.8983 33.5092 9.11662
Pt 11.2859 33.5093 11.3948
Pt 12.092 34.9056 6.83813
Pt 10.4798 34.9056 9.1164
Pt 13.7041 34.9057 11.3947
Pt 9.67352 33.5096 13.673
Pt 12.8976 33.5103 15.9513
Pt 11.2847 33.5114 18.2295
Pt 12.0916 34.906 13.6729
Pt 10.479 34.9066 15.9511
Pt 13.7029 34.9078 18.2293
Pt 9.67188 33.5123 20.5079
Pt 12.8956 33.5142 22.7864
Pt 11.2835 33.5137 25.0681
Pt 12.0901 34.9088 20.5077
Pt 10.4776 34.9091 22.7864
Pt 13.7023 34.9103 25.0679
Pt 9.67349 36.3024 0
Pt 12.8981 36.3022 2.28132
Pt 11.2859 36.302 4.55972
Pt 12.0919 37.6987 0
Pt 10.4797 37.6985 2.2813
Pt 13.7042 37.6984 4.55968
Pt 9.67359 36.302 6.83801
Pt 12.898 36.3019 9.11631
Pt 11.2856 36.302 11.3945
Pt 12.0919 37.6983 6.83796
Pt 10.4795 37.6983 9.11621
Pt 13.7038 37.6984 11.3944
Pt 9.67312 36.3023 13.6728
Pt 12.8972 36.3029 15.951
Pt 11.2845 36.3037 18.2293
Pt 12.0913 37.6987 13.6726
Pt 10.4787 37.6991 15.9509
Pt 13.7027 37.6999 18.2292
Pt 9.67194 36.3042 20.5078
Pt 12.8961 36.3055 22.7863
Pt 11.2841 36.305 25.068
Pt 12.0902 37.7005 20.5077
Pt 10.478 37.7006 22.7864
Pt 13.7028 37.7013 25.0679
Pt 9.67349 39.0949 0
Pt 12.898 39.0948 2.28128
Pt 11.2858 39.0947 4.55963
Pt 12.0919 40.4912 0
Pt 10.4797 40.4911 2.28127
Pt 13.7041 40.491 4.55961
Pt 9.67347 39.0946 6.83791
Pt 12.8978 39.0947 9.11615
Pt 11.2853 39.0947 11.3944
Pt 12.0918 40.491 6.83787
Pt 10.4794 40.491 9.11611
Pt 13.7036 40.4911 11.3943
Pt 9.67284 39.0949 13.6726
Pt 12.8969 39.0953 15.9508
Pt 11.2844 39.0957 18.2292
Pt 12.0911 40.4912 13.6725
Pt 10.4785 40.4914 15.9509
Pt 13.7027 40.4918 18.2292
Pt 9.67198 39.0961 20.5078
Pt 12.8964 39.0968 22.7863
Pt 11.2845 39.0965 25.068
Pt 12.0903 40.4921 20.5077
Pt 10.4782 40.4922 22.7864
Pt 13.703 40.4925 25.068
Pt 9.67349 41.8874 0
Pt 12.898 41.8874 2.28127
Pt 11.2857 41.8873 4.55959
Pt 12.0919 43.2837 0
Pt 10.4796 43.2837 2.28126
Pt 13.7041 43.2837 4.55959
Pt 9.6734 41.8873 6.83786
Pt 12.8977 41.8873 9.11608
Pt 11.2852 41.8874 11.3943
Pt 12.0917 43.2837 6.83783
Pt 10.4793 43.2837 9.11607