ITEM: TIMESTEP
36
ITEM: NUMBER OF ATOMS
3074
ITEM: BOX BOUNDS pp pp pp
0.0000000000000000e+00 3.8693948398131120e+01
0.0000000000000000e+00 4.4679925159782847e+01
0.0000000000000000e+00 6.0000000000000000e+01
ITEM: ATOMS id type x y z v_stress_xx v_stress_yy v_stress_zz v_stress_xy v_stress_xz v_stress_yz
1 2 0 0 0 2487.5 2487.82 -589.29 -0.37324 0.318083 -0.780835
2 2 3.22452 2.39569e-05 2.2813 -2406.48 -2436.38 3458.4 -11.9993 -2.20836 -13.2931
1687 2 19.3472 16.7554 6.84074 -2470.67 -2574.65 -1693.5 -70.8367 -18.1279 -440.07
4 2 2.41837 1.39625 0 2488.38 2487.32 -588.27 -1.19898 -1.43143 -2.54763
5 2 0.806134 1.39628 2.28131 -2410.13 -2412.06 3428.49 -12.9508 7.2707 -18.3586
6 2 4.03064 1.39635 4.55967 -2589.49 -2633.17 516.437 -39.5976 21.4187 -31.6341
1675 2 19.3454 13.9572 20.5093 -5264.57 -4198.16 3382.79 929.711 2849.88 3237.82
1663 2 19.3473 13.963 6.83962 -2449.97 -2669.43 -732.776 -68.9847 -58.7462 -376.725
1651 2 19.3458 11.165 20.5082 -3714.33 -1605.47 1710.65 370.785 699.954 1942.24
10 2 2.41832 1.39636 6.83801 -2595.62 -2618.57 400.728 -40.7268 47.844 -20.5231
11 2 0.805972 1.39633 9.11639 -2577.82 -2571.84 376.214 -37.1154 76.5732 -8.60931
12 2 4.03028 1.39635 11.3946 -2529.85 -2535.67 461.995 -54.2152 118.787 0.974957
13 2 -0.000441413 3.25999e-06 13.6732 -2448 -2414.33 333.676 -16.4915 120.191 12.2961
14 2 3.22372 -5.17594e-05 15.9513 -2293.81 -2190.51 358.785 -4.02016 159.369 31.1651
15 2 1.61146 -0.000117734 18.2299 -2130.67 -2026.29 242.244 8.46097 110.086 38.6622
16 2 2.41788 1.39627 13.673 -2444.29 -2406.88 401.514 -35.2075 136.653 26.5639
17 2 0.805538 1.39616 15.9515 -2318.58 -2267.51 311.704 -15.3719 122.356 51.8793
18 2 4.02967 1.39597 18.2297 -2113.32 -1937.09 293.041 36.2372 148.555 88.1253
1344 2 18.525 20.9437 25.4272 170104 218555 -82660.4 2.62423e-11 -38372.7 -1.33262e-09
20 2 3.22373 -0.00026738 22.787 -1643.55 -1472.21 3138.95 35.7032 22.3147 31.4526
21 2 1.61199 -0.000264777 25.0687 1867.46 1880.04 -438.282 1.4996 -1.9868 1.84908
22 2 2.41756 1.39585 20.5084 -1924.45 -1807.36 256.971 51.8257 65.6832 83.9746
23 2 0.805684 1.39578 22.7872 -1616.83 -1583.64 3135.84 29.8759 -17.8029 62.76
24 2 4.03002 1.39568 25.0685 1862.66 1885.11 -437.265 11.2183 0.0269911 3.35184
25 2 0 2.7925 0 2487.36 2488.02 -589.09 -1.03078 0.85451 -2.19079
26 2 3.22452 2.79257 2.28131 -2412.93 -2437.17 3458.74 -33.3726 -4.81871 -41.4047
27 2 1.61225 2.7926 4.5597 -2590.48 -2596.12 475.302 -39.8787 20.0612 -31.5443
28 2 2.41837 4.18874 0 2488.23 2487.43 -588.435 -2.19346 -0.756533 -4.68185
29 2 0.806122 4.18881 2.28131 -2411.89 -2402.6 3435.25 -30.4741 8.11824 -33.2845
30 2 4.03066 4.18894 4.55968 -2597.15 -2617.74 510.053 -64.3939 11.0795 -54.7401
31 2 -5.57179e-05 2.7926 6.83808 -2594.95 -2581.29 359.444 -42.8059 48.7049 -18.8297
32 2 3.22436 2.79267 9.1163 -2585.84 -2598.9 433.068 -73.8117 71.287 -24.1314
33 2 1.612 2.79261 11.3947 -2542.77 -2528.89 401.293 -66.0023 97.7146 1.01562
34 2 2.41835 4.18894 6.83802 -2602.17 -2599.44 402.242 -71.2716 35.9848 -38.7286
35 2 0.806026 4.1889 9.11638 -2592.22 -2572.04 383.811 -70.3232 62.9362 -18.05
36 2 4.03041 4.18894 11.3946 -2562.45 -2552.39 461.808 -100.324 89.9545 -5.88357
37 2 -0.000354242 2.79252 13.6731 -2469.91 -2441.45 343.755 -52.6029 106.714 30.5466
38 2 3.22384 2.79235 15.9513 -2313.54 -2236.17 381.107 -15.0896 147.086 86.0058
39 2 1.61157 2.79216 18.2299 -2131.64 -2078.74 266.533 19.3404 101.646 110.283
40 2 2.41803 4.18879 13.673 -2477.87 -2444.94 412.063 -70.6836 111.08 44.4693
41 2 0.805707 4.1886 15.9514 -2347.52 -2331.56 336.905 -39.1357 102.058 88.4743
42 2 4.02983 4.18822 18.2296 -2112.59 -2005.42 334.32 63.9887 143.564 173.255
1343 2 15.3043 20.9437 22.7948 -2712.53 -12735.8 17061.8 -1.72216e-09 8953.81 3.43594e-10
44 2 3.22373 2.79171 22.7869 -1569.51 -1477.94 3150.9 115.457 20.4953 96.8392
45 2 1.61197 2.79172 25.0687 1880.2 1877.94 -437.135 5.42261 -2.13092 4.98004
46 2 2.41767 4.18799 20.5083 -1868.24 -1856.35 289.25 99.184 65.8211 164.588
47 2 0.805763 4.18784 22.7871 -1499.79 -1611.66 3159.16 58.6685 -19.6101 117.304
48 2 4.02989 4.18765 25.0685 1877.65 1884.22 -437.001 26.1175 0.533345 6.57652
49 2 0 5.58499 0 2487.42 2488.34 -588.325 -1.61336 1.12961 -3.44692
50 2 3.22452 5.58511 2.28131 -2413.86 -2421.7 3453.46 -52.9492 -5.00927 -60.2978
51 2 1.61225 5.58515 4.5597 -2594.04 -2576.84 478.53 -53.9756 14.7577 -46.2157
52 2 2.41837 6.98124 0 2488.44 2487.97 -587.055 -2.88198 -0.192295 -6.076
53 2 0.80612 6.98132 2.28131 -2412.48 -2389.74 3443.24 -38.3326 11.2399 -42.928
54 2 4.03067 6.98149 4.5597 -2604.48 -2592.23 488.704 -81.932 -1.74175 -69.5514
1342 2 16.9307 20.9437 20.5381 -4629.64 -8996.01 -21255.9 4.09763e-10 -10258.3 -1.38375e-09
56 2 3.22446 5.58526 9.11632 -2610.75 -2592.97 428.269 -105.34 46.2232 -38.6815
57 2 1.61212 5.58517 11.3947 -2575.22 -2543.19 408.972 -93.6887 69.1741 -1.51066
58 2 2.41839 6.98149 6.83802 -2611.97 -2577.84 394.664 -81.1843 17.2407 -51.3818
59 2 0.806093 6.98146 9.11638 -2608.99 -2565.98 389.374 -81.2987 39.8033 -25.62
60 2 4.03059 6.98151 11.3946 -2601.53 -2567.41 457.672 -133.111 46.3309 -18.8136
61 2 -0.000188388 5.58504 13.6731 -2502.44 -2480.36 361.377 -77.2349 75.5982 39.584
62 2 3.22408 5.5848 15.9513 -2350.82 -2320.11 413.449 -36.8132 119.274 124.32
63 2 1.6118 5.58451 18.2298 -2134.18 -2174.26 306.49 17.341 83.0347 165
64 2 2.41826 6.98132 13.673 -2517.56 -2495.03 427.745 -97.3464 66.353 43.3554
65 2 0.805974 6.98109 15.9514 -2383.76 -2413.28 365.5 -61.8128 60.4178 102.537
66 2 4.03009 6.98055 18.2296 -2119.69 -2140.35 389.433 66.7363 136.784 233.968
1341 2 16.0625 19.5361 25.075 29591.6 -2651.38 5032.62 11877.3 6408.33 1564.5
68 2 3.22372 5.58373 22.7868 -1425.88 -1499.03 3177.28 214.679 37.3352 164.596
69 2 1.61189 5.58377 25.0686 1906.35 1872.4 -436.185 14.2321 -1.31239 7.58319
70 2 2.41786 6.98022 20.5082 -1785 -1963.35 338.893 131.093 72.3428 231.867
71 2 0.805885 6.97999 22.7869 -1300.99 -1687.89 3186.41 96.7429 -15.9079 162.886
72 2 4.02961 6.97966 25.0684 1904.26 1883.02 -436.394 50.3071 2.83473 10.2039
73 2 0 8.37749 0 2487.24 2488.68 -587.975 -2.00318 1.62303 -4.10392
74 2 3.22451 8.37763 2.2813 -2414.35 -2397.93 3447.17 -58.3971 -6.11366 -71.0868
75 2 1.61225 8.37767 4.5597 -2598.16 -2553.97 477.393 -57.2265 10.8838 -53.1656
76 2 2.41837 9.77373 0 2488.12 2488.45 -587 -3.41414 1.04189 -6.99572
77 2 0.806102 9.77383 2.28131 -2414.02 -2378.62 3442.84 -36.1903 15.4087 -49.0768
78 2 4.03067 9.77401 4.55972 -2612.56 -2563.08 454.652 -80.0266 -10.8677 -78.1913
1340 2 17.7336 19.5437 22.8373 -14503.2 -42651 -22113.8 6683.7 -1870.99 -1401.65
80 2 3.22456 8.37781 9.11635 -2629.48 -2575.99 414.778 -113.643 13.2382 -51.8898
81 2 1.61226 8.37771 11.3947 -2600.09 -2554.18 412.755 -101.29 27.5496 -10.6505
82 2 2.4184 9.77401 6.83804 -2618.69 -2554.8 381.707 -73.66 -0.765207 -59.1699
83 2 0.806145 9.77398 9.11638 -2610.31 -2550.05 388.459 -69.2255 7.88107 -35.2767
84 2 4.03077 9.77406 11.3947 -2621.14 -2568.57 431.868 -131.521 -4.85459 -36.2001
85 2 1.34084e-05 8.37756 13.6731 -2531.05 -2526.56 383.999 -85.0678 24.6726 35.1529
86 2 3.22441 8.37729 15.9513 -2397.48 -2428.42 434.767 -65.8332 65.0774 123.895
87 2 1.61215 8.37693 18.2297 -2137.35 -2310.02 347.34 -8.80601 40.5352 182.852
88 2 2.4185 9.77386 13.673 -2545.25 -2540.62 426.523 -98.0364 3.8762 25.5262
89 2 0.80629 9.7736 15.9514 -2397.34 -2500.65 391.444 -73.7636 -15.7747 89.7474
90 2 4.03046 9.77302 18.2296 -2163.29 -2330.7 419.7 39.3575 104.14 235.098
1339 2 14.5083 19.5464 20.5169 -3424.93 -6069.85 1192.88 -291.61 -460.802 1744.07
92 2 3.22366 8.37587 22.7868 -1222.46 -1589.47 3213.22 339.696 87.9504 229.85
93 2 1.61169 8.37594 25.0685 1946.68 1860.17 -436.202 33.6729 1.10803 9.59443
94 2 2.41814 9.7726 20.5081 -1725.1 -2150.8 377.297 134.431 73.8892 257.134
95 2 0.806023 9.77232 22.7868 -1080.66 -1841.46 3209.84 138.625 1.2502 191.514
96 2 4.02905 9.77176 25.0684 1955.8 1877.15 -436.32 90.8226 8.82846 13.7306
97 2 0 11.17 0 2486.48 2489.06 -588.906 -2.29662 2.81267 -4.42869
98 2 3.2245 11.1701 2.28131 -2429.12 -2379.37 3420.95 -51.9922 0.365961 -73.0087
99 2 1.61222 11.1702 4.55972 -2607.62 -2534.36 459.132 -44.4503 8.76662 -52.229
100 2 2.41837 12.5662 0 2486.93 2488.44 -589.869 -3.52305 2.48247 -6.88598
101 2 0.806069 12.5663 2.28132 -2431.99 -2367.96 3417.06 -24.3289 27.1279 -48.4301
102 2 4.03064 12.5665 4.55976 -2625.57 -2531.08 407.796 -63.0027 -14.678 -78.5401
1338 2 18.5423 20.9437 18.2562 -3060.66 -4035.65 -20895.5 1.33754e-09 -2789.36 6.25371e-10
104 2 3.2246 11.1703 9.11641 -2630.14 -2549.92 383.763 -87.4782 -23.2943 -60.9713
105 2 1.61237 11.1702 11.3947 -2598.34 -2551.92 403.744 -74.713 -23.7301 -23.9516
106 2 2.41838 12.5665 6.83809 -2628.33 -2528.19 345.749 -50.7117 -13.2041 -60.0796
107 2 0.80614 12.5665 9.11643 -2612.47 -2532.31 368.648 -33.826 -20.1339 -41.5036
108 2 4.03085 12.5665 11.3948 -2604.35 -2547.19 378.48 -92.7502 -61.7394 -56.8415
109 2 0.000194854 11.1701 13.6731 -2530.86 -2561.97 402.341 -67.9994 -44.9444 21.7251
110 2 3.22474 11.1698 15.9514 -2419 -2528.67 425.641 -68.6694 -15.7578 84.4258
111 2 1.61254 11.1695 18.2297 -2126.7 -2461.58 367.656 -21.0199 -34.1773 155.049
112 2 2.41867 12.5664 13.6731 -2533.57 -2560.35 404.28 -63.986 -72.4862 -2.07188
113 2 0.806557 12.5661 15.9514 -2373.13 -2576.43 400.079 -48.6773 -110.63 55.7379
114 2 4.03081 12.5656 18.2298 -2210.21 -2520.81 398.167 28.2458 30.9081 166.219
1337 2 15.3171 20.9437 15.9613 -2263.83 -2509.37 -4248.91 1.31323e-09 -1948.58 5.06304e-10
116 2 3.22357 11.1682 22.7868 -1045.95 -1795.87 3239.87 434.189 162.888 271.169
117 2 1.61132 11.1683 25.0684 1998.14 1839.34 -436.236 57.8648 6.12157 10.5792
118 2 2.41843 12.5652 20.5082 -1726.07 -2384.03 384.559 126.983 49.1021 219.232
119 2 0.806126 12.5649 22.7868 -955.79 -2057.41 3216.76 174.648 26.2103 180.754
120 2 4.02821 12.5641 25.0685 2038.12 1855.89 -436.363 131.328 19.7659 15.5133
121 2 0 13.9625 0 2484.74 2489.43 -592.161 -2.54508 5.06708 -4.64038
122 2 3.22446 13.9626 2.28134 -2446.64 -2363.44 3371.44 -35.9373 13.2509 -66.1691
123 2 1.61217 13.9627 4.55976 -2623.44 -2509.08 421.836 -23.5441 15.4742 -49.4834
124 2 2.41837 15.3587 0 2484.54 2488.02 -595.822 -3.18144 4.7989 -5.99392
125 2 0.806021 15.3588 2.28135 -2466.2 -2346.7 3364.41 -10.9425 49.0078 -42.5259
126 2 4.03059 15.3589 4.55983 -2643.1 -2493.19 339.279 -34.8736 -6.05093 -65.235
1336 2 16.9295 20.9437 13.6831 -2272.3 -2493.02 -5790.31 2.03281e-09 -1315 1.13081e-09
128 2 3.22458 13.9628 9.11652 -2623.49 -2515.09 327.074 -49.2569 -49.6862 -65.5271
129 2 1.61239 13.9627 11.3948 -2588.35 -2533.43 369.487 -26.9653 -69.37 -36.5854
130 2 2.41831 15.3589 6.83818 -2643.43 -2488.48 288.805 -17.9325 -10.4636 -52.64
131 2 0.806065 15.3589 9.11653 -2635.49 -2504.59 327.437 3.29255 -27.2143 -41.8567
132 2 4.03083 15.359 11.395 -2573.9 -2512.47 293.544 -40.6809 -104.171 -63.7362
133 2 0.000282559 13.9626 13.6731 -2519.26 -2578.37 400.968 -14.7405 -115.737 0.107318
134 2 3.22495 13.9624 15.9516 -2393 -2596.61 371.018 -31.5061 -109.465 28.5351
135 2 1.61283 13.9621 18.2299 -2106.02 -2588.23 348.608 4.78767 -119.659 94.0065
136 2 2.4187 15.3588 13.6733 -2501.05 -2562.53 344.768 -14.0109 -136.792 -25.856
137 2 0.806681 15.3587 15.9516 -2345.18 -2619.62 373.638 6.05878 -186.358 15.21
138 2 4.03101 15.3583 18.2302 -2217.97 -2671.7 313.19 45.445 -69.9562 73.6794
1335 2 16.1238 19.5493 18.2447 -2862.75 -3885.01 -7566.23 -1295.55 -3728.05 -3281.78
140 2 3.22349 13.9609 22.7869 -1019.89 -2099 3245.76 426.071 218.667 252.605
141 2 1.61084 13.961 25.0686 2048.01 1811.44 -436.19 70.608 13.0453 8.9385
142 2 2.41862 15.358 20.5085 -1780.3 -2591.92 353.728 118.739 4.72307 134.995
143 2 0.806141 15.3577 22.787 -973.708 -2265.34 3215.2 184.182 51.0162 125.24
144 2 4.0273 15.3569 25.0688 2127.74 1815.6 -436.477 133.808 32.384 13.4558
145 2 0 16.755 0 2481.66 2489.64 -598.408 -2.11009 8.96353 -3.56401
146 2 3.22442 16.7551 2.28138 -2470.16 -2341.63 3301.74 -18.8212 34.7695 -47.3319
147 2 1.61209 16.7551 4.55982 -2654.54 -2475.98 361.694 -1.34582 35.7447 -35.2462
148 2 2.41837 18.1512 0 2482.01 2487.84 -601.404 -1.81507 7.70004 -3.20367
149 2 0.805969 18.1513 2.28138 -2498.23 -2322.7 3299.31 -2.32553 76.4818 -25.5744
150 2 4.03053 18.1513 4.5599 -2658.42 -2464.98 266.852 -11.5253 10.5916 -34.175
1334 2 17.736 19.5487 15.9662 -2412.25 -3014.5 -9515.91 -523.869 -1918.43 -2313.33
152 2 3.2245 16.7552 9.11666 -2625.15 -2474.5 249.488 -13.023 -55.4766 -53.3281
153 2 1.61232 16.7551 11.395 -2598.26 -2512.18 308.065 11.7679 -88.3282 -38.113
154 2 2.41822 18.1513 6.83828 -2671 -2460.11 227.695 2.34496 5.83393 -31.4319
155 2 0.805956 18.1513 9.11665 -2679.03 -2478.71 263.711 20.3068 -13.0364 -28.4654
156 2 4.03075 18.1514 11.3952 -2547.06 -2487.66 200.292 -7.58301 -127.861 -45.3214
157 2 0.000249771 16.7551 13.6733 -2541.91 -2577.95 358.467 29.3036 -144.798 -18.5631
158 2 3.22499 16.7549 15.9519 -2344.37 -2634.63 282.669 14.1859 -184.884 -7.81356
159 2 1.61293 16.7547 18.2301 -2098.63 -2669.14 300.627 41.6589 -182.016 35.7575
160 2 2.41865 18.1513 13.6735 -2482.25 -2556.87 270.611 13.8691 -167.15 -26.2193
161 2 0.80666 18.1512 15.9518 -2352.78 -2632.08 316.268 31.9504 -214.645 -3.7259
162 2 4.03104 18.151 18.2305 -2177.68 -2757.79 222.54 47.1279 -158.75 17.2082
1333 2 14.5109 19.5481 13.6793 -2367.52 -2470.15 -2442.45 -232.123 -1110.12 -486.483
164 2 3.22342 16.7539 22.7873 -1122.07 -2393.02 3238.18 302.913 233.449 169.72
165 2 1.61038 16.7539 25.0688 2084.59 1783.86 -436.349 57.6989 19.0226 5.61467
166 2 2.41867 18.1508 20.5088 -1828.34 -2721.91 315.256 86.268 -37.8637 56.2854
167 2 0.806087 18.1507 22.7872 -1063.42 -2402.97 3206.64 126.78 69.1115 56.176
168 2 4.02661 18.1501 25.0691 2191.43 1774.05 -436.652 83.1147 40.6616 7.76416
169 2 0 19.5475 0 2478.87 2489.64 -604.16 -0.867854 12.2524 -1.40384
170 2 3.22438 19.5475 2.28139 -2483.16 -2317.91 3248.06 -6.23964 50.4043 -16.4015
171 2 1.61203 19.5475 4.55987 -2686.77 -2459.03 305.312 3.86421 55.4372 -13.9343
172 2 2.41837 20.9437 0 2481.1 2488.03 -602.912 9.35556e-11 8.98877 6.89548e-11
173 2 0.805952 20.9437 2.28139 -2512.02 -2314.09 3266.19 -2.85575e-09 88.4747 -1.93218e-09
174 2 4.03049 20.9437 4.55993 -2664.95 -2458.73 232.232 1.05752e-09 17.8225 4.48878e-10
1332 2 18.5412 20.9437 11.4026 -2342.78 -2387.99 -4690.3 2.2942e-10 -213.955 2.17752e-09
176 2 3.22442 19.5475 9.11677 -2634.14 -2458.88 189.478 0.790175 -53.3721 -20.8942
177 2 1.61224 19.5475 11.3951 -2617.81 -2502.06 255.608 13.1126 -85.1616 -18.167
178 2 2.41818 20.9437 6.83832 -2687.92 -2454.7 194.677 -2.02646e-09 14.3971 3.40574e-10
179 2 0.805904 20.9437 9.11671 -2706.41 -2471.54 229.518 6.01607e-10 -3.42182 -2.21645e-09
180 2 4.0307 20.9437 11.3953 -2537.69 -2483.39 153.185 5.18929e-10 -135.993 -1.17345e-09
1331 2 15.3169 20.9437 9.12062 -2419.13 -2436.36 -2327.21 7.91341e-11 -563.386 2.92796e-10
182 2 3.22495 19.5475 15.9521 -2310.75 -2643.77 217.744 14.3951 -226.104 -9.17221
183 2 1.61292 19.5474 18.2303 -2103.89 -2705.36 256.403 26.9747 -206.924 6.49672
184 2 2.41861 20.9437 13.6736 -2478.48 -2552.16 237.101 1.42489e-09 -173.118 9.46797e-10
185 2 0.806626 20.9437 15.9519 -2363.98 -2631.23 285.756 7.12453e-11 -215.083 2.53317e-10
186 2 4.03102 20.9437 18.2307 -2151.81 -2783.31 187.287 -5.15753e-10 -196.173 1.0842e-09
1330 2 16.9289 20.9437 6.84147 -2469.53 -2477.25 -2359.91 6.45057e-10 -256.416 -1.36423e-09
188 2 3.22337 19.5471 22.7875 -1212.35 -2565.01 3234.07 111.198 223.797 58.159
189 2 1.61011 19.5471 25.069 2102.51 1765.19 -437.229 22.08 22.0278 1.80221
190 2 2.41866 20.9437 20.5089 -1844.2 -2764.8 299.278 4.46486e-09 -56.4916 1.08374e-09
191 2 0.806052 20.9437 22.7873 -1112.29 -2450.65 3200.92 -8.70326e-10 76.8924 1.55076e-09
192 2 4.02636 20.9437 25.0693 2213.93 1756.78 -436.445 -8.5743e-11 42.9472 -7.95909e-11
385 2 4.83674 0 0 2489.27 2487.98 -585.149 -0.857545 -1.87048 -1.7616
386 2 8.06128 4.39959e-05 2.28127 -2382.64 -2473.77 3519.69 -20.2733 -14.6993 -24.9339
387 2 6.44901 6.60477e-05 4.55964 -2574.48 -2666.51 553.06 -24.5225 15.3155 -22.4316
388 2 7.25512 1.39625 0 2490.29 2487.72 -583.63 -2.38261 -3.5015 -5.04692
389 2 5.64291 1.39632 2.28129 -2398.76 -2458.08 3487.82 -31.3952 -11.64 -37.9488
390 2 8.8674 1.3964 4.55962 -2566.16 -2695.62 568.115 -49.4511 4.57606 -49.2643
391 2 4.83668 7.48062e-05 6.83795 -2590.65 -2658.53 460.683 -24.2821 51.8131 -15.0203
392 2 8.061 9.5821e-05 9.11613 -2562.97 -2670.5 541.35 -31.5169 81.8536 -16.0458
393 2 6.44856 6.35832e-05 11.3944 -2523.75 -2552.09 521.113 -29.2146 128.56 -1.89684
394 2 7.25506 1.39643 6.83791 -2586.08 -2695.98 492.286 -57.3382 37.7332 -42.3588
395 2 5.64269 1.39641 9.11621 -2572.8 -2636.44 490.791 -60.0735 79.0973 -24.9665
396 2 8.86693 1.39639 11.3944 -2532.2 -2577.85 577.468 -57.5643 120.278 -6.56217
397 2 4.83611 9.82545e-06 13.6728 -2435.04 -2375.57 463.39 -17.9826 163.065 16.4591
398 2 8.0602 -9.1276e-05 15.951 -2320.67 -2059.06 483.141 6.82817 214.605 41.2305
399 2 6.44781 -0.000182393 18.2295 -2123.59 -1796.83 331.954 32.6848 188.011 52.4017
400 2 7.25445 1.39627 13.6727 -2451.2 -2381.49 529.495 -37.2613 167.74 32.4221
401 2 5.642 1.39611 15.9511 -2304.85 -2144.09 429.546 1.21593 186.046 69.1591
402 2 8.86606 1.39579 18.2293 -2159.74 -1690.38 395.124 87.6105 227.564 126.976
403 2 4.83565 -0.000241394 20.5082 -1931.85 -1652.78 273.12 44.2267 109.029 46.535
1645 2 19.3473 11.1701 13.6742 -2492 -2817.41 339.079 -138.833 -49.8131 -221.429
1627 2 19.3459 8.3736 20.508 -3188.15 -1143.68 1008.83 243.928 351.771 1201.37
406 2 7.2538 1.39564 20.508 -1938.52 -1482.04 312.914 125.881 154.023 110.503
407 2 5.64181 1.39562 22.7868 -1640.01 -1321.95 3155.78 118.621 56.692 66.1462
408 2 8.8663 1.39543 25.0682 1838.83 1925.42 -436.649 24.5079 4.04156 3.5251
409 2 4.83674 2.7925 0 2489.09 2487.44 -586.796 -2.63853 -1.95813 -5.68493
410 2 8.0613 2.79263 2.28129 -2395.41 -2483.97 3491.5 -53.11 -25.3811 -70.8087
411 2 6.44904 2.79269 4.55965 -2587.83 -2666.75 534.363 -66.6498 3.64454 -63.3716
412 2 7.25512 4.18874 0 2489.79 2486.34 -587.695 -4.48502 -3.92809 -9.54364
413 2 5.64292 4.18888 2.2813 -2411.43 -2454.18 3466.89 -59.899 -16.9987 -72.5045
414 2 8.86745 4.18904 4.55967 -2584.25 -2701.62 520.146 -90.5498 -16.5291 -93.2939
415 2 4.83672 2.7927 6.83796 -2600.95 -2643.66 446.327 -76.3892 40.4422 -47.029
416 2 8.06109 2.79277 9.11618 -2575.65 -2678.54 523.135 -96.3478 59.3205 -47.7612
417 2 6.44867 2.79269 11.3945 -2543.75 -2571.29 517.449 -90.7896 105.487 -9.83793
418 2 7.25515 4.18908 6.83796 -2605.15 -2687.58 453.029 -111.831 14.0549 -79.7475
419 2 5.64279 4.18904 9.11625 -2600.85 -2635.32 472.128 -117.863 52.7921 -50.728
420 2 8.86712 4.18903 11.3945 -2558.64 -2633.12 557.106 -125.187 85.7009 -24.2326
421 2 4.83624 2.79253 13.6728 -2460.63 -2413.69 471.087 -58.3307 145.438 41.647
422 2 8.06032 2.79225 15.951 -2334.95 -2129.03 508.577 13.8426 207.098 121.462
423 2 6.4479 2.79197 18.2295 -2118.96 -1845.74 361.587 86.8676 190.877 157.894
424 2 7.25465 4.18881 13.6728 -2486.32 -2452.15 539.249 -86.9426 139.952 53.8008
425 2 5.64219 4.18851 15.9511 -2333.19 -2224.28 462.585 -11.9526 168.456 131.242
426 2 8.86617 4.18789 18.2294 -2165.76 -1791.67 447.89 156.873 243.001 256.505
427 2 4.83569 2.79178 20.5081 -1894.01 -1668.1 296.504 131.55 114.819 145.155
428 2 8.05989 2.79133 22.7866 -1654.75 -1115.9 3170.91 254.055 101.955 123.35
429 2 6.44804 2.79151 25.0683 1855.51 1900.93 -437.233 28.5113 2.28697 5.12373
430 2 7.25381 4.18757 20.5079 -1900.23 -1514.54 350.966 253.066 179.877 238.385
431 2 5.64174 4.18749 22.7867 -1549.9 -1309.34 3169.39 258.459 72.3269 150.352
432 2 8.86607 4.18712 25.0682 1845.33 1929.51 -437.24 53.0946 5.17758 8.51687
433 2 4.83674 5.58499 0 2489.2 2487.01 -587.608 -3.80083 -2.02659 -8.06685
434 2 8.06132 5.5852 2.28131 -2410.89 -2479.91 3434.7 -83.7792 -37.608 -111.601
435 2 6.44907 5.58529 4.55969 -2605.48 -2650.68 498.116 -98.1124 -13.3267 -92.153
436 2 7.25512 6.98124 0 2489.55 2484.85 -591.713 -6.0434 -4.44626 -12.8389
437 2 5.64292 6.98142 2.28131 -2418.97 -2435.08 3437.85 -76.3171 -21.8163 -94.7227
438 2 8.86751 6.98166 4.55974 -2605.35 -2683.6 443.637 -127.314 -43.3175 -135.535
439 2 4.83678 5.5853 6.83799 -2619.43 -2624.7 428.398 -108.632 16.8793 -68.0498
440 2 8.06126 5.58544 9.11628 -2610.24 -2694.86 477.627 -161.766 20.611 -86.6096
441 2 6.44888 5.5853 11.3946 -2586.27 -2603.55 501.783 -147.774 65.2179 -25.5344
442 2 7.25525 6.9817 6.83804 -2630.94 -2670.7 400.487 -150.02 -19.858 -111.524
443 2 5.64293 6.98164 9.11632 -2633.76 -2628.69 441.324 -152.532 14.0272 -75.02
444 2 8.86739 6.9817 11.3946 -2614.37 -2704.46 510.327 -206.507 22.6843 -69.6486
445 2 4.83647 5.58508 13.6729 -2502.69 -2468.28 485.904 -101.995 107.461 52.4638
446 2 8.06059 5.58466 15.9511 -2383.68 -2270.26 550.414 -16.4394 188.805 181.807
447 2 6.44809 5.58419 18.2295 -2130.37 -1960.78 422.777 122.946 199.656 260.191
448 2 7.25496 6.98139 13.6729 -2551.21 -2550.14 541.873 -151.69 87.686 47.1222
449 2 5.6425 6.98098 15.9512 -2386.84 -2348.6 502.989 -46.2148 138.024 161.964
450 2 8.86638 6.98013 18.2294 -2210.67 -1979.15 538.767 183.051 267.865 369.621
451 2 4.83577 5.58386 20.5081 -1829.63 -1731.48 346.6 219.471 137.293 250.036
452 2 8.05969 5.58306 22.7866 -1571.47 -1080.74 3198.52 461.619 141.067 234.65
453 2 6.44776 5.58337 25.0683 1869.97 1904.65 -436.954 54.8205 3.99293 9.75956
454 2 7.25383 6.97958 20.5079 -1855.01 -1605.53 433.797 379.002 238.661 377.343
455 2 5.64157 6.97942 22.7867 -1401.67 -1317.5 3210.54 441.698 122.733 247.012
456 2 8.8656 6.97879 25.0681 1855.62 1942.45 -437.021 92.6946 7.96932 15.2914
457 2 4.83674 8.37749 0 2489.28 2486.56 -588.637 -4.68808 -2.06456 -9.83907
458 2 8.06134 8.37774 2.28135 -2430.29 -2464.43 3362.27 -103.345 -49.5444 -136.865
459 2 6.44911 8.37785 4.55973 -2619.02 -2616.63 444.028 -113.959 -31.5665 -112.226
460 2 7.25512 9.77373 0 2488.86 2483.11 -597.405 -6.76437 -4.70638 -14.1017
461 2 5.64292 9.77393 2.28133 -2431.21 -2417.66 3397.96 -80.7905 -24.2976 -104.867
462 2 8.86756 9.77421 4.55985 -2625.76 -2644.89 334.319 -145.603 -70.527 -161.058
463 2 4.83684 8.37785 6.83804 -2636.94 -2600.66 395.357 -117.8 -8.33497 -83.9031
464 2 8.06145 8.37806 9.11643 -2649.48 -2689.98 405.601 -206.925 -36.6116 -131.055
465 2 6.44912 8.3779 11.3947 -2635.4 -2624.64 466.881 -190.475 6.59499 -56.3193
466 2 7.25532 9.77425 6.83814 -2648.91 -2628.13 329.409 -157.306 -54.3619 -134.182
467 2 5.64305 9.77419 9.11641 -2648.46 -2599.59 398.804 -152.18 -28.5392 -93.3764
468 2 8.86768 9.77435 11.3949 -2681.76 -2725.43 418.538 -270.258 -67.2033 -140.022
469 2 4.83676 8.37763 13.6729 -2558.65 -2529.85 481.254 -135.293 48.5308 35.023
470 2 8.06097 8.3772 15.9512 -2478.49 -2462.07 593.254 -83.538 146.872 192.325
471 2 6.44838 8.37655 18.2295 -2174.35 -2156.36 504.537 120.909 210.716 326.113
472 2 7.25531 9.77399 13.673 -2632.82 -2625.97 504.192 -208.736 6.63405 -1.99144
473 2 5.64288 9.77352 15.9513 -2471.05 -2490.42 507.837 -91.9185 76.0295 135.062
474 2 8.86671 9.77256 18.2296 -2327.26 -2270.17 665.689 145.154 290.424 437.9
475 2 4.8359 8.37606 20.508 -1760.54 -1887.74 418.25 291.71 185.456 338.823
476 2 8.05932 8.37483 22.7865 -1441.67 -1037.7 3265.88 747.322 234.304 384.593
477 2 6.4472 8.37524 25.0682 1898.03 1913.89 -436.586 97.8958 8.43057 15.851
478 2 7.25386 9.77177 20.5079 -1826.04 -1825.69 566.736 490.706 345.281 512.864
479 2 5.64125 9.77148 22.7866 -1169.7 -1415.27 3274.08 681.003 237.79 357.765
480 2 8.86468 9.7704 25.0682 1878.43 1972.76 -437.242 162.59 14.9621 26.4086
481 2 4.83674 11.17 0 2488.39 2485.78 -592.399 -5.03937 -1.4346 -10.3005
482 2 8.06134 11.1702 2.28139 -2450.47 -2446.88 3267.94 -103.944 -55.2692 -143.402
483 2 6.44911 11.1703 4.5598 -2632.32 -2575.6 374.981 -107.601 -39.2216 -117.787
484 2 7.25512 12.5662 0 2487.18 2481.29 -605.281 -6.8083 -4.0412 -14.0201
485 2 5.6429 12.5664 2.28136 -2449.29 -2398.41 3334.16 -69.8536 -20.3266 -101.26
486 2 8.86757 12.5667 4.55997 -2646.42 -2594.18 199.933 -137.174 -82.653 -163.701
487 2 4.83686 11.1704 6.83811 -2643.3 -2561.26 346.756 -102.038 -28.366 -89.7615
488 2 8.06157 11.1706 9.11663 -2663.09 -2632.34 308.263 -202.765 -90.6795 -160.88
489 2 6.44929 11.1704 11.3948 -2645.44 -2599.51 401.545 -179.11 -57.0946 -89.2052
490 2 7.25533 12.5667 6.83829 -2650.01 -2558.44 232.811 -133.528 -74.0398 -138.034
491 2 5.64308 12.5667 9.11655 -2638.97 -2548.28 328.171 -118.156 -62.877 -104.703
492 2 8.86784 12.5669 11.3952 -2683.8 -2654.04 283.157 -253.026 -145.322 -186.077
493 2 4.83701 11.1702 13.6731 -2576.33 -2570.32 440.884 -127.73 -26.8676 -3.90541
494 2 8.06141 11.1698 15.9515 -2624.33 -2632.09 568.177 -169.525 57.886 115.944
495 2 6.44877 11.1691 18.2297 -2303.85 -2414.33 530.647 67.3871 185.85 299.242
496 2 7.25553 12.5665 13.6734 -2640.06 -2628.6 407.083 -185.417 -81.1125 -65.5921
497 2 5.64319 12.5661 15.9515 -2503.73 -2594.26 443.324 -82.8555 -16.5766 59.2995
498 2 8.86717 12.5653 18.23 -2606.57 -2624.12 683.898 5.27305 234.073 355.28
499 2 4.8361 11.1685 20.5081 -1783.05 -2163.16 462.381 295.658 229.477 361.132
500 2 8.05865 11.1667 22.7866 -1125.74 -1132.33 3417.2 1172.36 466.153 608.272
501 2 6.4461 11.1672 25.0683 1981.61 1918.93 -437.013 177.176 20.2953 22.8379
502 2 7.25402 12.5643 20.5082 -1987.92 -2251.76 635.564 456.265 429.558 540.086
503 2 5.6409 12.5639 22.7868 -997.127 -1730.9 3324.22 815.921 393.484 444.598
504 2 8.86261 12.5619 25.0684 2034.16 2000.99 -436.18 330.224 38.97 41.8613
505 2 4.83674 13.9625 0 2486.56 2485.1 -598.113 -4.63147 0.250972 -9.13905
506 2 8.06133 13.9627 2.28145 -2471.77 -2418.94 3153.74 -85.3928 -50.8981 -129.002
507 2 6.44909 13.9628 4.55988 -2641.81 -2529.68 287.34 -80.0651 -39.7099 -104.619
508 2 7.25512 15.3587 0 2484.72 2479.55 -614.524 -5.55196 -2.48817 -11.1703
509 2 5.64287 15.3589 2.2814 -2469.06 -2374.36 3253.99 -47.6127 -6.71424 -81.2458
510 2 8.86754 15.3591 4.56011 -2645.69 -2529.45 59.7556 -98.6531 -83.2224 -136.435
511 2 4.83682 13.9628 6.83821 -2641.75 -2508.75 273.255 -68.6956 -37.6541 -88.4217
512 2 8.06157 13.963 9.11689 -2639.99 -2541.06 167.596 -155.984 -130.377 -165.973
513 2 6.44933 13.9629 11.3951 -2607.2 -2543.26 283.886 -123.187 -117.864 -112.761
514 2 7.25528 15.3591 6.83846 -2633.39 -2488.31 112.16 -89.5886 -82.7844 -117.365
515 2 5.64303 15.3591 9.11674 -2612.74 -2485.43 224.282 -68.1307 -85.4051 -97.1505
516 2 8.86781 15.3593 11.3957 -2599.15 -2541.81 79.1227 -169.11 -211.396 -197.355
517 2 4.83712 13.9627 13.6733 -2538.29 -2573.34 350.306 -78.1744 -107.421 -44.6867
518 2 8.06167 13.9625 15.952 -2637.24 -2703.62 427.058 -134.3 -62.8845 -5.21158
519 2 6.44908 13.9618 18.2301 -2398.44 -2657.82 435.976 55.184 86.9323 168.801
520 2 7.25556 15.359 13.6738 -2548.35 -2585.26 226.113 -107.634 -178.147 -113.925
521 2 5.64331 15.3587 15.952 -2449.25 -2650.57 300.344 -31.3219 -133.259 -18.0638
522 2 8.86742 15.3581 18.2308 -2678.64 -2900.2 461.038 31.2839 56.129 116.506
523 2 4.83632 13.9612 20.5084 -1903.26 -2501.28 434.321 252.071 203.938 280.808
524 2 8.05796 13.9591 22.787 -947.843 -1708.04 3519.96 1346.5 763.678 789.161
525 2 6.44447 13.9594 25.0686 2141.81 1887.31 -436.492 252.149 43.5483 26.7554
526 2 7.25422 15.3572 20.5089 -2223.2 -2784.71 522.905 349.331 339.168 354.961
527 2 5.64067 15.3568 22.7872 -1078.17 -2253.96 3321.87 689.684 467.696 402.205
528 2 8.85941 15.354 25.0691 2376.76 1934.17 -436.496 483.377 90.882 48.3884
529 2 4.83674 16.755 0 2483.98 2484.55 -604.805 -3.37861 2.95721 -6.53252
530 2 8.0613 16.7551 2.2815 -2488.1 -2388.04 3040.97 -53.9862 -39.5406 -90.8778
531 2 6.44903 16.7552 4.55997 -2645.96 -2483.12 186.971 -44.5502 -34.1659 -73.5432
532 2 7.25512 18.1512 0 2482.44 2478.24 -622.168 -3.21039 -0.916579 -6.43566
533 2 5.64283 18.1513 2.28143 -2488.54 -2344.14 3179.39 -22.0003 11.1591 -46.2559
534 2 8.86748 18.1514 4.56023 -2640.77 -2473.78 -62.9299 -48.6277 -77.0011 -80.2721
535 2 4.83675 16.7552 6.83834 -2645.61 -2461.46 187.748 -32.6114 -34.1869 -68.0722
536 2 8.06148 16.7554 9.11717 -2587.07 -2457.95 2.49636 -90.828 -157.131 -134.196
537 2 6.44926 16.7553 11.3954 -2536.25 -2485.74 135.921 -61.3403 -164.239 -101.281
538 2 7.25521 18.1514 6.83861 -2614.13 -2435.39 -2.47128 -42.1778 -85.4321 -70.6947
539 2 5.64295 18.1514 9.11692 -2590.06 -2437.49 119.334 -26.6574 -96.2698 -61.6689
540 2 8.86767 18.1515 11.3961 -2487.86 -2446.35 -148.605 -77.5818 -264.82 -140.008
541 2 4.83709 16.7551 13.6736 -2467.65 -2554.69 226.461 -24.8376 -173.894 -57.0811
542 2 8.06166 16.755 15.9527 -2482.13 -2721.36 151.841 -48.8538 -226.178 -100.414
543 2 6.44919 16.7546 18.2307 -2359.22 -2834.25 245.609 62.3805 -82.7975 30.3877
544 2 7.25545 18.1514 13.6742 -2418.66 -2541.5 20.5193 -40.035 -260.911 -94.2424
545 2 5.64326 18.1512 15.9524 -2342.36 -2674.75 149.347 5.97213 -233.955 -38.6714
546 2 8.86738 18.1509 18.2318 -2477.55 -3096.29 58.2466 66.5521 -237.156 -60.0032
547 2 4.83645 16.7542 20.5089 -2008.78 -2790.69 352.834 176.292 106.084 146.024
548 2 8.05762 16.7525 22.7878 -1262.79 -2707.31 3442.36 980.255 791.216 637.619
549 2 6.44287 16.7525 25.0692 2306.72 1808.15 -435.971 226.651 65.2825 22.0108
550 2 7.25432 18.1504 20.5097 -2324.62 -3204.71 323.124 190.504 109.79 123.194
551 2 5.64059 18.1501 22.7878 -1307.53 -2728.29 3295.65 363.081 428.847 228.497
552 2 8.85663 18.148 25.0702 2686.03 1760.42 -437.533 359.468 128.508 32.5975
553 2 4.83674 19.5475 0 2482.42 2484.52 -608.22 -1.24707 5.02876 -2.41498
554 2 8.06127 19.5475 2.28154 -2495.15 -2364.99 2964.19 -17.6587 -27.5549 -33.8347
555 2 6.44898 19.5475 4.56004 -2652.01 -2450.76 119.66 -13.1948 -25.8567 -25.9836
556 2 7.25512 20.9437 0 2481.4 2477.71 -625.333 8.01973e-11 -0.115625 1.46581e-10
557 2 5.64282 20.9437 2.28144 -2495.67 -2325.09 3148.88 6.0913e-10 20.069 6.01181e-10
558 2 8.86746 20.9437 4.56028 -2639.89 -2451.41 -115.215 6.41142e-10 -72.4167 -8.23198e-10
559 2 4.83669 19.5475 6.83842 -2651.7 -2440.83 124.749 -8.38108 -30.4376 -24.8534
560 2 8.0614 19.5476 9.11737 -2546.28 -2406.08 -119.203 -29.1475 -169.001 -53.4564