       N       E                     dE             d eps       ncg     rms          rms(c)
DAV:   1     0.427233824273E+04    0.42723E+04   -0.26743E+05  3920   0.127E+03
DAV:   2    -0.680611683589E+02   -0.43404E+04   -0.40048E+04  4662   0.277E+02
DAV:   3    -0.393037569189E+03   -0.32498E+03   -0.29314E+03  4662   0.695E+01
DAV:   4    -0.408013405187E+03   -0.14976E+02   -0.14203E+02  5054   0.139E+01
DAV:   5    -0.408454978332E+03   -0.44157E+00   -0.43718E+00  5558   0.243E+00    0.822E+01
RMM:   6    -0.398517035760E+03    0.99379E+01   -0.76176E+01  3937   0.138E+01    0.647E+01
RMM:   7    -0.570496639718E+03   -0.17198E+03   -0.27737E+02  4170   0.160E+01    0.938E+01
RMM:   8    -0.524942724153E+03    0.45554E+02   -0.15067E+02  3923   0.120E+01    0.873E+01
RMM:   9    -0.408510005912E+03    0.11643E+03   -0.70567E+01  3932   0.102E+01    0.438E+01
RMM:  10    -0.410197519244E+03   -0.16875E+01   -0.60162E+01  3928   0.926E+00    0.465E+01
RMM:  11    -0.403255588153E+03    0.69419E+01   -0.19851E+01  3931   0.522E+00    0.435E+01
RMM:  12    -0.385399479003E+03    0.17856E+02   -0.50086E+00  3938   0.283E+00    0.213E+01
RMM:  13    -0.382354198969E+03    0.30453E+01   -0.22939E+00  3934   0.192E+00    0.126E+01
RMM:  14    -0.381797996597E+03    0.55620E+00   -0.75988E-01  3943   0.107E+00    0.866E+00
RMM:  15    -0.381800611367E+03   -0.26148E-02   -0.48091E-01  3940   0.822E-01    0.890E+00
RMM:  16    -0.381546347310E+03    0.25426E+00   -0.30324E-01  3937   0.693E-01    0.767E+00
RMM:  17    -0.381215655181E+03    0.33069E+00   -0.12536E-01  3938   0.454E-01    0.503E+00
RMM:  18    -0.381153296809E+03    0.62358E-01   -0.51675E-02  3947   0.289E-01    0.454E+00
RMM:  19    -0.381152737213E+03    0.55960E-03   -0.43906E-02  3935   0.283E-01    0.430E+00
RMM:  20    -0.381089458060E+03    0.63279E-01   -0.39718E-02  3936   0.258E-01    0.328E+00
RMM:  21    -0.381027726113E+03    0.61732E-01   -0.45929E-02  3936   0.259E-01    0.222E+00
RMM:  22    -0.380994284208E+03    0.33442E-01   -0.15709E-02  3936   0.154E-01    0.144E+00
RMM:  23    -0.380994502290E+03   -0.21808E-03   -0.41614E-03  3964   0.764E-02    0.148E+00
RMM:  24    -0.380984633782E+03    0.98685E-02   -0.23179E-03  3936   0.735E-02    0.127E+00
RMM:  25    -0.380976449710E+03    0.81841E-02   -0.33057E-03  3935   0.680E-02    0.101E+00
RMM:  26    -0.380975124264E+03    0.13254E-02   -0.27479E-03  3938   0.644E-02    0.890E-01
RMM:  27    -0.380971389825E+03    0.37344E-02   -0.11998E-03  3938   0.418E-02    0.568E-01
RMM:  28    -0.380970474044E+03    0.91578E-03   -0.62401E-04  3948   0.318E-02    0.483E-01
RMM:  29    -0.380968582917E+03    0.18911E-02   -0.65620E-04  3938   0.289E-02    0.298E-01
RMM:  30    -0.380968085567E+03    0.49735E-03   -0.25847E-04  3999   0.182E-02    0.205E-01
RMM:  31    -0.380967774304E+03    0.31126E-03   -0.15850E-04  3970   0.140E-02    0.899E-02
RMM:  32    -0.380967775147E+03   -0.84257E-06   -0.52651E-05  4153   0.790E-03    0.491E-02
RMM:  33    -0.380967876866E+03   -0.10172E-03   -0.19822E-05  3951   0.481E-03    0.447E-02
RMM:  34    -0.380967926187E+03   -0.49321E-04   -0.74733E-06  3345   0.308E-03    0.307E-02
RMM:  35    -0.380967992846E+03   -0.66659E-04   -0.53555E-06  2959   0.264E-03    0.102E-02
RMM:  36    -0.380968036871E+03   -0.44025E-04   -0.21737E-06  2358   0.232E-03    0.142E-02
RMM:  37    -0.380968091039E+03   -0.54168E-04   -0.20948E-06  2380   0.177E-03    0.214E-02
RMM:  38    -0.380968120403E+03   -0.29364E-04   -0.95429E-07  2217   0.107E-03    0.178E-02
RMM:  39    -0.380968161140E+03   -0.40737E-04   -0.16086E-06  2337   0.107E-03    0.121E-02
RMM:  40    -0.380968177518E+03   -0.16378E-04   -0.66150E-07  2169   0.869E-04    0.587E-03
RMM:  41    -0.380968196319E+03   -0.18801E-04   -0.69124E-07  2118   0.771E-04    0.291E-03
RMM:  42    -0.380968215881E+03   -0.19562E-04   -0.12348E-06  2198   0.812E-04    0.992E-03
RMM:  43    -0.380968218932E+03   -0.30503E-05   -0.31129E-07  1613   0.592E-04    0.741E-03
RMM:  44    -0.380968220531E+03   -0.15994E-05   -0.12530E-07   955   0.402E-04    0.295E-03
RMM:  45    -0.380968223523E+03   -0.29917E-05   -0.25080E-07  1651   0.546E-04    0.205E-03
RMM:  46    -0.380968228314E+03   -0.47909E-05   -0.43240E-07  2077   0.649E-04    0.109E-02
RMM:  47    -0.380968228010E+03    0.30367E-06   -0.67135E-08  1106   0.440E-04
   1 F= -.41555751E+03 E0= -.41520180E+03  d E =-.415558E+03
       N       E                     dE             d eps       ncg     rms          rms(c)
DAV:   1    -0.381029957391E+03   -0.61729E-01   -0.13340E+01  4004   0.543E+00    0.146E+00
RMM:   2    -0.381860446871E+03   -0.83049E+00   -0.88319E-01  3925   0.105E+00    0.860E+00
RMM:   3    -0.381319296774E+03    0.54115E+00   -0.16450E-01  3931   0.489E-01    0.566E+00
RMM:   4    -0.381072901778E+03    0.24639E+00   -0.69736E-02  3937   0.311E-01    0.208E+00
RMM:   5    -0.381058142276E+03    0.14760E-01   -0.18102E-02  3943   0.166E-01    0.132E+00
RMM:   6    -0.381059009781E+03   -0.86751E-03   -0.89603E-03  3954   0.127E-01    0.961E-01
RMM:   7    -0.381058242147E+03    0.76763E-03   -0.45554E-03  3939   0.101E-01    0.520E-01
RMM:   8    -0.381057520776E+03    0.72137E-03   -0.19331E-03  3938   0.649E-02    0.380E-01
RMM:   9    -0.381057659975E+03   -0.13920E-03   -0.13034E-03  3940   0.497E-02    0.374E-01
RMM:  10    -0.381057069348E+03    0.59063E-03   -0.74858E-04  3940   0.379E-02    0.204E-01
RMM:  11    -0.381056910755E+03    0.15859E-03   -0.32288E-04  3932   0.230E-02    0.137E-01
RMM:  12    -0.381056842811E+03    0.67943E-04   -0.11041E-04  3936   0.172E-02    0.138E-01
RMM:  13    -0.381056749217E+03    0.93595E-04   -0.40695E-05  3939   0.893E-03    0.842E-02
RMM:  14    -0.381056782609E+03   -0.33392E-04   -0.26817E-05  3926   0.725E-03    0.293E-02
RMM:  15    -0.381056828645E+03   -0.46036E-04   -0.11945E-05  3791   0.742E-03    0.317E-02
RMM:  16    -0.381056838156E+03   -0.95110E-05   -0.30658E-06  2544   0.368E-03    0.329E-02
RMM:  17    -0.381056843349E+03   -0.51930E-05   -0.87500E-07  2152   0.148E-03    0.250E-02
RMM:  18    -0.381056853829E+03   -0.10480E-04   -0.86624E-07  2159   0.138E-03    0.164E-02
RMM:  19    -0.381056873629E+03   -0.19800E-04   -0.15146E-06  2255   0.176E-03    0.732E-03
RMM:  20    -0.381056882474E+03   -0.88452E-05   -0.63255E-07  2139   0.148E-03    0.606E-03
RMM:  21    -0.381056897833E+03   -0.15359E-04   -0.60244E-07  2119   0.833E-04    0.333E-03
RMM:  22    -0.381056917020E+03   -0.19187E-04   -0.10364E-06  2126   0.893E-04    0.543E-03
RMM:  23    -0.381056928849E+03   -0.11829E-04   -0.67264E-07  1970   0.783E-04    0.343E-03
RMM:  24    -0.381056936210E+03   -0.73603E-05   -0.43637E-07  1434   0.548E-04    0.191E-03
RMM:  25    -0.381056940123E+03   -0.39128E-05   -0.22588E-07  1217   0.450E-04    0.136E-03
RMM:  26    -0.381056944935E+03   -0.48128E-05   -0.24297E-07  1401   0.451E-04    0.893E-04
RMM:  27    -0.381056947132E+03   -0.21970E-05   -0.85022E-08   745   0.339E-04    0.891E-04
RMM:  28    -0.381056950271E+03   -0.31387E-05   -0.91958E-08   791   0.359E-04    0.712E-04
RMM:  29    -0.381056952076E+03   -0.18045E-05   -0.63415E-08   711   0.350E-04    0.911E-04
RMM:  30    -0.381056953438E+03   -0.13619E-05   -0.58603E-08   697   0.344E-04    0.853E-04
RMM:  31    -0.381056954246E+03   -0.80802E-06   -0.36207E-08   559   0.328E-04
   2 F= -.41565974E+03 E0= -.41530474E+03  d E =-.102229E+00
       N       E                     dE             d eps       ncg     rms          rms(c)
DAV:   1    -0.381093654310E+03   -0.36701E-01   -0.14819E+01  4004   0.539E+00    0.759E-01
RMM:   2    -0.381357399928E+03   -0.26375E+00   -0.33716E-01  3952   0.874E-01    0.541E+00
RMM:   3    -0.381118941637E+03    0.23846E+00   -0.38033E-02  3960   0.276E-01    0.137E+00
RMM:   4    -0.381121521309E+03   -0.25797E-02   -0.10303E-02  3940   0.131E-01    0.116E+00
RMM:   5    -0.381119434362E+03    0.20869E-02   -0.58545E-03  3948   0.118E-01    0.858E-01
RMM:   6    -0.381117400597E+03    0.20338E-02   -0.28926E-03  3948   0.706E-02    0.685E-01
RMM:   7    -0.381117551019E+03   -0.15042E-03   -0.27267E-03  3932   0.674E-02    0.574E-01
RMM:   8    -0.381116115786E+03    0.14352E-02   -0.15197E-03  3938   0.535E-02    0.310E-01
RMM:   9    -0.381115508341E+03    0.60745E-03   -0.47220E-04  3934   0.278E-02    0.156E-01
RMM:  10    -0.381115421974E+03    0.86367E-04   -0.13565E-04  3931   0.163E-02    0.956E-02
RMM:  11    -0.381115357562E+03    0.64412E-04   -0.86000E-05  3933   0.117E-02    0.522E-02
RMM:  12    -0.381115344533E+03    0.13030E-04   -0.43324E-05  3932   0.819E-03    0.292E-02
RMM:  13    -0.381115348818E+03   -0.42854E-05   -0.16513E-05  3923   0.513E-03    0.303E-02
RMM:  14    -0.381115347050E+03    0.17675E-05   -0.60737E-06  3454   0.334E-03    0.179E-02
RMM:  15    -0.381115346401E+03    0.64899E-06   -0.18264E-06  2174   0.197E-03
   3 F= -.41574186E+03 E0= -.41538759E+03  d E =-.821231E-01
       N       E                     dE             d eps       ncg     rms          rms(c)
DAV:   1    -0.381127049874E+03   -0.11703E-01   -0.28458E+01  4004   0.737E+00    0.102E+00
RMM:   2    -0.381355189386E+03   -0.22814E+00   -0.51201E-01  3964   0.116E+00    0.469E+00
RMM:   3    -0.381178923038E+03    0.17627E+00   -0.45267E-02  3982   0.275E-01    0.135E+00
RMM:   4    -0.381185291060E+03   -0.63680E-02   -0.23689E-02  3944   0.204E-01    0.185E+00
RMM:   5    -0.381172868343E+03    0.12423E-01   -0.11415E-02  3947   0.175E-01    0.119E+00
RMM:   6    -0.381169549970E+03    0.33184E-02   -0.70009E-03  3931   0.118E-01    0.882E-01
RMM:   7    -0.381168727194E+03    0.82278E-03   -0.55823E-03  3934   0.944E-02    0.752E-01
RMM:   8    -0.381166641945E+03    0.20852E-02   -0.23226E-03  3954   0.650E-02    0.508E-01
RMM:   9    -0.381165226263E+03    0.14157E-02   -0.80211E-04  3941   0.362E-02    0.188E-01
RMM:  10    -0.381165182389E+03    0.43874E-04   -0.18652E-04  3942   0.194E-02    0.131E-01
RMM:  11    -0.381165071499E+03    0.11089E-03   -0.12611E-04  3931   0.139E-02    0.817E-02
RMM:  12    -0.381165026133E+03    0.45366E-04   -0.50910E-05  3937   0.878E-03    0.353E-02
RMM:  13    -0.381165033535E+03   -0.74023E-05   -0.28831E-05  3925   0.717E-03    0.322E-02
RMM:  14    -0.381165029982E+03    0.35531E-05   -0.13357E-05  3911   0.483E-03    0.173E-02
RMM:  15    -0.381165029019E+03    0.96273E-06   -0.26999E-06  2349   0.244E-03
   4 F= -.41583154E+03 E0= -.41547831E+03  d E =-.896826E-01
       N       E                     dE             d eps       ncg     rms          rms(c)
DAV:   1    -0.381112558258E+03    0.52472E-01   -0.55850E+01  3920   0.102E+01    0.139E+00
RMM:   2    -0.381622432345E+03   -0.50987E+00   -0.99004E-01  3961   0.162E+00    0.715E+00
RMM:   3    -0.381203186466E+03    0.41925E+00   -0.87834E-02  3980   0.391E-01    0.152E+00
RMM:   4    -0.381225076510E+03   -0.21890E-01   -0.43251E-02  3943   0.278E-01    0.245E+00
RMM:   5    -0.381199536246E+03    0.25540E-01   -0.19256E-02  3948   0.202E-01    0.162E+00
RMM:   6    -0.381193241089E+03    0.62952E-02   -0.11204E-02  3934   0.147E-01    0.121E+00
RMM:   7    -0.381190853609E+03    0.23875E-02   -0.10444E-02  3937   0.129E-01    0.938E-01
RMM:   8    -0.381185979681E+03    0.48739E-02   -0.40460E-03  3949   0.834E-02    0.543E-01
RMM:   9    -0.381184805568E+03    0.11741E-02   -0.90650E-04  3950   0.412E-02    0.280E-01
RMM:  10    -0.381184486037E+03    0.31953E-03   -0.30283E-04  3940   0.219E-02    0.193E-01
RMM:  11    -0.381184240516E+03    0.24552E-03   -0.26013E-04  3939   0.203E-02    0.111E-01
RMM:  12    -0.381184151475E+03    0.89041E-04   -0.77623E-05  3942   0.111E-02    0.483E-02
RMM:  13    -0.381184173205E+03   -0.21729E-04   -0.62813E-05  3932   0.109E-02    0.539E-02
RMM:  14    -0.381184162179E+03    0.11026E-04   -0.28373E-05  3931   0.690E-03    0.382E-02
RMM:  15    -0.381184155896E+03    0.62833E-05   -0.86832E-06  3870   0.384E-03    0.184E-02
RMM:  16    -0.381184155135E+03    0.76061E-06   -0.28180E-06  2412   0.233E-03
   5 F= -.41591613E+03 E0= -.41556465E+03  d E =-.845894E-01
       N       E                     dE             d eps       ncg     rms          rms(c)
DAV:   1    -0.381179169595E+03    0.49863E-02   -0.28587E+00  4004   0.221E+00    0.253E-01
RMM:   2    -0.381192958752E+03   -0.13789E-01   -0.38780E-02  3946   0.344E-01    0.111E+00
RMM:   3    -0.381183750938E+03    0.92078E-02   -0.35491E-03  3993   0.793E-02    0.472E-01
RMM:   4    -0.381182507710E+03    0.12432E-02   -0.88508E-04  3940   0.424E-02    0.261E-01
RMM:   5    -0.381182654980E+03   -0.14727E-03   -0.96932E-04  3937   0.462E-02    0.296E-01
RMM:   6    -0.381182253054E+03    0.40193E-03   -0.35343E-04  3939   0.286E-02    0.166E-01
RMM:   7    -0.381182587296E+03   -0.33424E-03   -0.52822E-04  3934   0.293E-02    0.262E-01
RMM:   8    -0.381182330311E+03    0.25698E-03   -0.25019E-04  3938   0.219E-02    0.133E-01
RMM:   9    -0.381182210269E+03    0.12004E-03   -0.88395E-05  3933   0.121E-02    0.699E-02
RMM:  10    -0.381182188908E+03    0.21361E-04   -0.18993E-05  3929   0.549E-03    0.488E-02
RMM:  11    -0.381182174023E+03    0.14885E-04   -0.13065E-05  3910   0.471E-03    0.255E-02
RMM:  12    -0.381182169627E+03    0.43958E-05   -0.77437E-06  3860   0.347E-03    0.145E-02
RMM:  13    -0.381182169008E+03    0.61969E-06   -0.20044E-06  2170   0.209E-03
   6 F= -.41593413E+03 E0= -.41558271E+03  d E =-.179936E-01
       N       E                     dE             d eps       ncg     rms          rms(c)
DAV:   1    -0.381043578364E+03    0.13859E+00   -0.86196E+01  3920   0.123E+01    0.145E+00
RMM:   2    -0.381558459475E+03   -0.51488E+00   -0.12605E+00  3952   0.193E+00    0.690E+00
RMM:   3    -0.381183501716E+03    0.37496E+00   -0.11676E-01  3982   0.453E-01    0.236E+00
RMM:   4    -0.381162999546E+03    0.20502E-01   -0.36532E-02  3935   0.261E-01    0.188E+00
RMM:   5    -0.381151740625E+03    0.11259E-01   -0.28070E-02  3947   0.243E-01    0.158E+00
RMM:   6    -0.381141475253E+03    0.10265E-01   -0.85126E-03  3944   0.140E-01    0.888E-01
RMM:   7    -0.381152035206E+03   -0.10560E-01   -0.14898E-02  3934   0.155E-01    0.153E+00
RMM:   8    -0.381141737470E+03    0.10298E-01   -0.72971E-03  3942   0.112E-01    0.745E-01
RMM:   9    -0.381137639911E+03    0.40976E-02   -0.24906E-03  3933   0.630E-02    0.366E-01
RMM:  10    -0.381136997567E+03    0.64234E-03   -0.57311E-04  3936   0.303E-02    0.226E-01
RMM:  11    -0.381136673371E+03    0.32420E-03   -0.34001E-04  3937   0.238E-02    0.128E-01
RMM:  12    -0.381136566349E+03    0.10702E-03   -0.13996E-04  3937   0.147E-02    0.651E-02
RMM:  13    -0.381136552033E+03    0.14316E-04   -0.63064E-05  3935   0.107E-02    0.498E-02
RMM:  14    -0.381136536123E+03    0.15910E-04   -0.43576E-05  3932   0.841E-03    0.265E-02
RMM:  15    -0.381136535406E+03    0.71731E-06   -0.12935E-05  3922   0.468E-03    0.231E-02
RMM:  16    -0.381136535541E+03   -0.13455E-06   -0.38007E-06  2701   0.264E-03
   7 F= -.41599931E+03 E0= -.41564910E+03  d E =-.651892E-01
       N       E                     dE             d eps       ncg     rms          rms(c)
DAV:   1    -0.381120833217E+03    0.15702E-01   -0.25680E+00  3920   0.215E+00    0.265E-01
RMM:   2    -0.381132854041E+03   -0.12021E-01   -0.37939E-02  3974   0.334E-01    0.102E+00
RMM:   3    -0.381125928484E+03    0.69256E-02   -0.35315E-03  3990   0.800E-02    0.547E-01
RMM:   4    -0.381124355179E+03    0.15733E-02   -0.12100E-03  3940   0.450E-02    0.369E-01
RMM:   5    -0.381124109678E+03    0.24550E-03   -0.10005E-03  3948   0.530E-02    0.268E-01
RMM:   6    -0.381123844759E+03    0.26492E-03   -0.26207E-04  3938   0.247E-02    0.137E-01
RMM:   7    -0.381124279384E+03   -0.43463E-03   -0.44532E-04  3932   0.266E-02    0.283E-01
RMM:   8    -0.381123916200E+03    0.36318E-03   -0.23838E-04  3949   0.210E-02    0.129E-01
RMM:   9    -0.381123795786E+03    0.12041E-03   -0.58932E-05  3925   0.974E-03    0.670E-02
RMM:  10    -0.381123765232E+03    0.30554E-04   -0.21249E-05  3921   0.572E-03    0.285E-02
RMM:  11    -0.381123762249E+03    0.29837E-05   -0.73089E-06  3699   0.364E-03    0.170E-02
RMM:  12    -0.381123762108E+03    0.14039E-06   -0.23946E-06  2289   0.220E-03
   8 F= -.41600755E+03 E0= -.41565736E+03  d E =-.823588E-02
       N       E                     dE             d eps       ncg     rms          rms(c)
DAV:   1    -0.381041108041E+03    0.82654E-01   -0.27878E+01  3920   0.714E+00    0.902E-01
RMM:   2    -0.381154305457E+03   -0.11320E+00   -0.41995E-01  3966   0.111E+00    0.307E+00
RMM:   3    -0.381104184237E+03    0.50121E-01   -0.40056E-02  3986   0.274E-01    0.201E+00
RMM:   4    -0.381083722230E+03    0.20462E-01   -0.14822E-02  3939   0.148E-01    0.133E+00
RMM:   5    -0.381077895963E+03    0.58263E-02   -0.11102E-02  3949   0.172E-01    0.896E-01
RMM:   6    -0.381074609836E+03    0.32861E-02   -0.27951E-03  3939   0.785E-02    0.461E-01
RMM:   7    -0.381078910249E+03   -0.43004E-02   -0.44455E-03  3934   0.839E-02    0.921E-01
RMM:   8    -0.381075114021E+03    0.37962E-02   -0.26411E-03  3946   0.687E-02    0.421E-01
RMM:   9    -0.381073807017E+03    0.13070E-02   -0.62288E-04  3939   0.320E-02    0.216E-01
RMM:  10    -0.381073521090E+03    0.28593E-03   -0.22295E-04  3946   0.183E-02    0.114E-01
RMM:  11    -0.381073441932E+03    0.79158E-04   -0.76143E-05  3942   0.111E-02    0.470E-02
RMM:  12    -0.381073441989E+03   -0.57524E-07   -0.25600E-05  3941   0.676E-03    0.432E-02
RMM:  13    -0.381073436898E+03    0.50912E-05   -0.18533E-05  3920   0.552E-03    0.383E-02
RMM:  14    -0.381073429192E+03    0.77061E-05   -0.93910E-06  3890   0.393E-03    0.228E-02
RMM:  15    -0.381073428135E+03    0.10569E-05   -0.26565E-06  2396   0.228E-03    0.124E-02
RMM:  16    -0.381073428313E+03   -0.17806E-06   -0.11772E-06  2114   0.169E-03
   9 F= -.41602719E+03 E0= -.41567715E+03  d E =-.196407E-01
       N       E                     dE             d eps       ncg     rms          rms(c)
DAV:   1    -0.381050135536E+03    0.23293E-01   -0.33523E+00  3920   0.252E+00    0.330E-01
RMM:   2    -0.381061901153E+03   -0.11766E-01   -0.53629E-02  3974   0.387E-01    0.983E-01
RMM:   3    -0.381058811079E+03    0.30901E-02   -0.53633E-03  3972   0.104E-01    0.782E-01
RMM:   4    -0.381056452948E+03    0.23581E-02   -0.21950E-03  3952   0.545E-02    0.604E-01
RMM:   5    -0.381054689523E+03    0.17634E-02   -0.14632E-03  3951   0.670E-02    0.309E-01
RMM:   6    -0.381054451692E+03    0.23783E-03   -0.34792E-04  3946   0.285E-02    0.166E-01
RMM:   7    -0.381054915571E+03   -0.46388E-03   -0.50796E-04  3932   0.286E-02    0.303E-01
RMM:   8    -0.381054527175E+03    0.38840E-03   -0.33101E-04  3944   0.238E-02    0.147E-01
RMM:   9    -0.381054374897E+03    0.15228E-03   -0.90465E-05  3935   0.124E-02    0.756E-02
RMM:  10    -0.381054349999E+03    0.24897E-04   -0.24730E-05  3931   0.616E-03    0.504E-02
RMM:  11    -0.381054332395E+03    0.17605E-04   -0.12822E-05  3908   0.455E-03    0.195E-02
RMM:  12    -0.381054331409E+03    0.98603E-06   -0.56516E-06  3317   0.307E-03
  10 F= -.41603214E+03 E0= -.41568209E+03  d E =-.495179E-02
       N       E                     dE             d eps       ncg     rms          rms(c)
DAV:   1    -0.381006061257E+03    0.48271E-01   -0.10037E+01  3920   0.440E+00    0.581E-01
RMM:   2    -0.381042483588E+03   -0.36422E-01   -0.16647E-01  3976   0.673E-01    0.171E+00
RMM:   3    -0.381033724836E+03    0.87588E-02   -0.16546E-02  3971   0.180E-01    0.139E+00
RMM:   4    -0.381025990340E+03    0.77345E-02   -0.70472E-03  3947   0.973E-02    0.107E+00
RMM:   5    -0.381020277015E+03    0.57133E-02   -0.43634E-03  3949   0.117E-01    0.536E-01
RMM:   6    -0.381019524235E+03    0.75278E-03   -0.10733E-03  3944   0.494E-02    0.297E-01
RMM:   7    -0.381020750943E+03   -0.12267E-02   -0.14402E-03  3932   0.484E-02    0.507E-01
RMM:   8    -0.381019704990E+03    0.10460E-02   -0.10061E-03  3945   0.411E-02    0.256E-01
RMM:   9    -0.381019246945E+03    0.45804E-03   -0.29880E-04  3937   0.227E-02    0.129E-01
RMM:  10    -0.381019180965E+03    0.65980E-04   -0.76333E-05  3940   0.108E-02    0.897E-02
RMM:  11    -0.381019125866E+03    0.55099E-04   -0.39419E-05  3925   0.799E-03    0.368E-02
RMM:  12    -0.381019118783E+03    0.70835E-05   -0.19004E-05  3924   0.544E-03    0.272E-02
RMM:  13    -0.381019118410E+03    0.37310E-06   -0.67150E-06  3581   0.342E-03
  11 F= -.41603796E+03 E0= -.41568790E+03  d E =-.581340E-02
       N       E                     dE             d eps       ncg     rms          rms(c)
DAV:   1    -0.381005902817E+03    0.13216E-01   -0.12336E+00  3948   0.158E+00    0.218E-01
RMM:   2    -0.381009837974E+03   -0.39352E-02   -0.22273E-02  3984   0.237E-01    0.568E-01
RMM:   3    -0.381007803298E+03    0.20347E-02   -0.22055E-03  3968   0.697E-02    0.261E-01
RMM:   4    -0.381011200555E+03   -0.33973E-02   -0.10709E-03  3960   0.450E-02    0.673E-01
RMM:   5    -0.381007562261E+03    0.36383E-02   -0.61740E-04  3957   0.380E-02    0.180E-01
RMM:   6    -0.381007724555E+03   -0.16229E-03   -0.18387E-04  3941   0.232E-02    0.119E-01
RMM:   7    -0.381007817811E+03   -0.93256E-04   -0.16290E-04  3930   0.165E-02    0.155E-01
RMM:   8    -0.381007747082E+03    0.70729E-04   -0.12860E-04  3943   0.145E-02    0.927E-02
RMM:   9    -0.381007692596E+03    0.54486E-04   -0.48450E-05  3935   0.909E-03    0.453E-02
RMM:  10    -0.381007685196E+03    0.73993E-05   -0.10458E-05  3879   0.406E-03    0.286E-02
RMM:  11    -0.381007680118E+03    0.50779E-05   -0.44181E-06  2980   0.278E-03    0.144E-02
RMM:  12    -0.381007678731E+03    0.13877E-05   -0.22011E-06  2220   0.203E-03    0.943E-03
RMM:  13    -0.381007679039E+03   -0.30815E-06   -0.86665E-07  2098   0.137E-03
  12 F= -.41603972E+03 E0= -.41568959E+03  d E =-.175827E-02
       N       E                     dE             d eps       ncg     rms          rms(c)
DAV:   1    -0.380979377037E+03    0.28302E-01   -0.44873E+00  3920   0.303E+00    0.424E-01
RMM:   2    -0.380994309739E+03   -0.14933E-01   -0.83801E-02  3973   0.453E-01    0.113E+00
RMM:   3    -0.380985237601E+03    0.90721E-02   -0.85134E-03  3965   0.137E-01    0.385E-01
RMM:   4    -0.380998812379E+03   -0.13575E-01   -0.37371E-03  3960   0.926E-02    0.127E+00
RMM:   5    -0.380985874876E+03    0.12938E-01   -0.18128E-03  3957   0.598E-02    0.311E-01
RMM:   6    -0.380986294619E+03   -0.41974E-03   -0.70943E-04  3935   0.428E-02    0.252E-01
RMM:   7    -0.380986454935E+03   -0.16032E-03   -0.56759E-04  3931   0.304E-02    0.281E-01
RMM:   8    -0.380986246613E+03    0.20832E-03   -0.46106E-04  3935   0.274E-02    0.181E-01
RMM:   9    -0.380986041846E+03    0.20477E-03   -0.18210E-04  3932   0.176E-02    0.872E-02
RMM:  10    -0.380986010942E+03    0.30904E-04   -0.41451E-05  3935   0.809E-03    0.512E-02
RMM:  11    -0.380985995500E+03    0.15443E-04   -0.16596E-05  3916   0.530E-03    0.275E-02
RMM:  12    -0.380985989437E+03    0.60629E-05   -0.81936E-06  3826   0.352E-03    0.152E-02
RMM:  13    -0.380985990335E+03   -0.89804E-06   -0.27524E-06  2374   0.229E-03
  13 F= -.41604206E+03 E0= -.41569183E+03  d E =-.234141E-02
       N       E                     dE             d eps       ncg     rms          rms(c)
DAV:   1    -0.380981491141E+03    0.44983E-02   -0.30485E-01  3948   0.814E-01    0.119E-01
RMM:   2    -0.380982458451E+03   -0.96731E-03   -0.63769E-03  3979   0.118E-01    0.255E-01
RMM:   3    -0.380982042685E+03    0.41577E-03   -0.60604E-04  3955   0.347E-02    0.141E-01
RMM:   4    -0.380982919335E+03   -0.87665E-03   -0.27995E-04  3967   0.244E-02    0.343E-01
RMM:   5    -0.380981938650E+03    0.98069E-03   -0.12628E-04  3942   0.158E-02    0.705E-02
RMM:   6    -0.380982037544E+03   -0.98894E-04   -0.73379E-05  3925   0.135E-02    0.834E-02
RMM:   7    -0.380982027819E+03    0.97250E-05   -0.38917E-05  3927   0.801E-03    0.639E-02
RMM:   8    -0.380982025226E+03    0.25925E-05   -0.30913E-05  3924   0.707E-03    0.508E-02
RMM:   9    -0.380982011752E+03    0.13475E-04   -0.13350E-05  3909   0.479E-03    0.218E-02
RMM:  10    -0.380982009814E+03    0.19374E-05   -0.24389E-06  2293   0.215E-03    0.104E-02
RMM:  11    -0.380982009337E+03    0.47696E-06   -0.10074E-06  2067   0.144E-03
  14 F= -.41604267E+03 E0= -.41569242E+03  d E =-.617513E-03
       N       E                     dE             d eps       ncg     rms          rms(c)
DAV:   1    -0.380978910148E+03    0.30997E-02   -0.36231E-01  3920   0.887E-01    0.134E-01
RMM:   2    -0.380980686419E+03   -0.17763E-02   -0.77761E-03  3974   0.128E-01    0.423E-01
RMM:   3    -0.380980574261E+03    0.11216E-03   -0.10885E-03  3955   0.476E-02    0.423E-01
RMM:   4    -0.380979563239E+03    0.10110E-02   -0.33446E-04  3965   0.360E-02    0.134E-01
RMM:   5    -0.380979532640E+03    0.30599E-04   -0.12175E-04  3948   0.143E-02    0.101E-01
RMM:   6    -0.380979537430E+03   -0.47899E-05   -0.87327E-05  3934   0.124E-02    0.926E-02
RMM:   7    -0.380979522371E+03    0.15059E-04   -0.39915E-05  3927   0.823E-03    0.594E-02
RMM:   8    -0.380979526096E+03   -0.37249E-05   -0.36029E-05  3926   0.775E-03    0.544E-02
RMM:   9    -0.380979513355E+03    0.12741E-04   -0.15491E-05  3918   0.512E-03    0.273E-02
RMM:  10    -0.380979509443E+03    0.39129E-05   -0.36194E-06  2676   0.262E-03    0.783E-03
RMM:  11    -0.380979509126E+03    0.31675E-06   -0.11160E-06  2068   0.150E-03
  15 F= -.41604339E+03 E0= -.41569308E+03  d E =-.715706E-03
       N       E                     dE             d eps       ncg     rms          rms(c)
DAV:   1    -0.380975911220E+03    0.35982E-02   -0.67887E-01  3920   0.121E+00    0.179E-01
RMM:   2    -0.380979652393E+03   -0.37412E-02   -0.14669E-02  3971   0.175E-01    0.622E-01
RMM:   3    -0.380979103323E+03    0.54907E-03   -0.20760E-03  3957   0.660E-02    0.582E-01
RMM:   4    -0.380977151778E+03    0.19515E-02   -0.65977E-04  3964   0.484E-02    0.175E-01
RMM:   5    -0.380977059924E+03    0.91854E-04   -0.21464E-04  3951   0.195E-02    0.123E-01
RMM:   6    -0.380977070858E+03   -0.10934E-04   -0.15112E-04  3938   0.164E-02    0.112E-01
RMM:   7    -0.380977047935E+03    0.22924E-04   -0.72294E-05  3931   0.110E-02    0.708E-02
RMM:   8    -0.380977058593E+03   -0.10658E-04   -0.62692E-05  3931   0.103E-02    0.694E-02
RMM:   9    -0.380977037162E+03    0.21430E-04   -0.25494E-05  3926   0.660E-03    0.359E-02
RMM:  10    -0.380977030324E+03    0.68386E-05   -0.60543E-06  3506   0.340E-03    0.105E-02
RMM:  11    -0.380977029757E+03    0.56641E-06   -0.17411E-06  2115   0.182E-03
  16 F= -.41604418E+03 E0= -.41569377E+03  d E =-.786342E-03
       N       E                     dE             d eps       ncg     rms          rms(c)
DAV:   1    -0.380976302885E+03    0.72744E-03   -0.20717E-01  3948   0.673E-01    0.986E-02
RMM:   2    -0.380977726868E+03   -0.14240E-02   -0.45853E-03  3977   0.975E-02    0.391E-01
RMM:   3    -0.380977235320E+03    0.49155E-03   -0.67171E-04  3955   0.379E-02    0.318E-01
RMM:   4    -0.380976690455E+03    0.54486E-03   -0.22286E-04  3954   0.269E-02    0.989E-02
RMM:   5    -0.380976650188E+03    0.40267E-04   -0.61586E-05  3953   0.112E-02    0.580E-02
RMM:   6    -0.380976657687E+03   -0.74989E-05   -0.42242E-05  3924   0.866E-03    0.563E-02
RMM:   7    -0.380976652567E+03    0.51193E-05   -0.21074E-05  3924   0.596E-03    0.369E-02
RMM:   8    -0.380976655300E+03   -0.27325E-05   -0.18312E-05  3922   0.557E-03    0.351E-02
RMM:   9    -0.380976649875E+03    0.54243E-05   -0.73889E-06  3754   0.359E-03    0.191E-02
RMM:  10    -0.380976647837E+03    0.20388E-05   -0.14184E-06  2130   0.175E-03    0.660E-03
RMM:  11    -0.380976647655E+03    0.18186E-06   -0.57518E-07  2027   0.105E-03
  17 F= -.41604453E+03 E0= -.41569407E+03  d E =-.353194E-03
       N       E                     dE             d eps       ncg     rms          rms(c)
DAV:   1    -0.380977140000E+03   -0.49216E-03   -0.87184E-02  3948   0.435E-01    0.607E-02
RMM:   2    -0.380977799551E+03   -0.65955E-03   -0.18972E-03  3980   0.637E-02    0.263E-01
RMM:   3    -0.380977454780E+03    0.34477E-03   -0.26156E-04  3956   0.235E-02    0.178E-01
RMM:   4    -0.380977309457E+03    0.14532E-03   -0.88701E-05  3940   0.162E-02    0.698E-02
RMM:   5    -0.380977283463E+03    0.25994E-04   -0.23122E-05  3939   0.742E-03    0.326E-02
RMM:   6    -0.380977286790E+03   -0.33268E-05   -0.14880E-05  3916   0.525E-03    0.315E-02
RMM:   7    -0.380977286754E+03    0.36205E-07   -0.91235E-06  3887   0.393E-03
  18 F= -.41604477E+03 E0= -.41569426E+03  d E =-.238647E-03
