ITEM: TIMESTEP
0
ITEM: NUMBER OF ATOMS
3072
ITEM: BOX BOUNDS pp pp pp
0.0000000000000000e+00 3.8675839478873655e+01
0.0000000000000000e+00 4.4659012656503762e+01
0.0000000000000000e+00 6.0000000000000000e+01
ITEM: ATOMS id type x y z v_stress_xx v_stress_yy v_stress_zz v_stress_xy v_stress_xz v_stress_yz
1 1 0 0 0 3131.58 3131.57 0.00497806 9.37251e-11 -0.0007334 2.36233e-10
2 1 3.22299 0 2.279 873.222 873.227 6369.33 3.9607e-11 0.00401889 -2.48534e-10
3 1 1.61149 0 4.55799 8.27548 8.28043 143.595 -1.74271e-10 0.00401766 -1.713e-10
4 1 2.41724 1.39559 0 3131.58 3131.57 0.00497806 7.68239e-12 -0.0007334 -1.6133e-11
5 1 0.805747 1.39559 2.279 873.222 873.227 6369.33 8.5155e-11 0.00401889 1.98035e-12
6 1 4.02873 1.39559 4.55799 8.27548 8.28043 143.595 -9.50568e-11 0.00401766 2.17838e-11
25 1 0 2.79119 0 3131.58 3131.57 0.00497806 1.84377e-11 -0.0007334 -6.14591e-12
26 1 3.22299 2.79119 2.279 873.222 873.227 6369.33 -4.59441e-10 0.00401889 -2.37642e-11
27 1 1.61149 2.79119 4.55799 8.27548 8.28043 143.595 4.26765e-10 0.00401766 7.62435e-11
28 1 2.41724 4.18678 0 3131.58 3131.57 0.00497806 1.84377e-11 -0.0007334 4.85911e-11
29 1 0.805747 4.18678 2.279 873.222 873.227 6369.33 -3.51512e-10 0.00401889 1.97045e-10
30 1 4.02873 4.18678 4.55799 8.27548 8.28043 143.595 1.1585e-10 0.00401766 -1.38624e-11
49 1 0 5.58238 0 3131.58 3131.57 0.00497806 1.95901e-11 -0.0007334 -2.49678e-11
50 1 3.22299 5.58238 2.279 873.222 873.227 6369.33 -2.8517e-10 0.00401889 3.46561e-11
51 1 1.61149 5.58238 4.55799 8.27548 8.28043 143.595 -1.1387e-10 0.00401766 1.27733e-10
385 1 4.83448 0 0 3131.58 3131.57 0.00497806 8.60427e-11 -0.0007334 2.49678e-10
387 1 6.44597 0 4.55799 8.27548 8.28043 143.595 3.16856e-11 0.00401765 4.35677e-11
389 1 5.64023 1.39559 2.279 873.222 873.227 6369.33 7.12926e-11 0.00401889 -1.34664e-10
409 1 4.83448 2.79119 0 3131.58 3131.57 0.00497806 -1.53648e-12 -0.0007334 -2.32572e-11
411 1 6.44597 2.79119 4.55799 8.27548 8.28043 143.595 -5.49547e-10 0.00401766 8.60988e-12
413 1 5.64023 4.18678 2.279 873.222 873.227 6369.33 -2.16709e-10 0.00401889 1.42957e-11
433 1 4.83448 5.58238 0 3131.58 3131.57 0.00497806 -2.05251e-11 -0.0007334 -2.5659e-11
435 1 6.44597 5.58238 4.55799 8.27548 8.28043 143.595 -5.10298e-11 0.00401766 5.84024e-12
386 1 8.05747 0 2.279 873.222 873.227 6369.33 -1.08919e-10 0.00401889 -2.79229e-10
388 1 7.25172 1.39559 0 3131.58 3131.57 0.00497806 1.34442e-11 -0.0007334 -1.76695e-11
390 1 8.86321 1.39559 4.55799 8.27548 8.28043 143.595 -1.58428e-11 0.00401766 1.58428e-11
410 1 8.05747 2.79119 2.279 873.222 873.227 6369.33 -5.79252e-11 0.00401889 -6.92349e-12
412 1 7.25172 4.18678 0 3131.58 3131.57 0.00497806 2.33863e-11 -0.0007334 4.86701e-11
414 1 8.86321 4.18678 4.55799 8.27548 8.28043 143.595 -5.00279e-10 0.00401766 5.43885e-11
434 1 8.05747 5.58238 2.279 873.222 873.227 6369.33 4.073e-10 0.00401889 5.32094e-11
769 1 9.66896 0 0 3131.58 3131.57 0.00497806 7.98968e-11 -0.0007334 2.61201e-10
771 1 11.2805 0 4.55799 8.27548 8.28043 143.595 -4.75284e-11 0.00401766 2.05956e-10
772 1 12.0862 1.39559 0 3131.58 3131.57 0.00497806 2.18948e-11 -0.0007334 -1.45965e-11
773 1 10.4747 1.39559 2.279 873.222 873.227 6369.33 9.50568e-11 0.00401889 -1.90114e-10
793 1 9.66896 2.79119 0 3131.58 3131.57 0.00497806 -4.33335e-11 -0.0007334 -3.28902e-11
795 1 11.2805 2.79119 4.55799 8.27548 8.28043 143.595 -7.17877e-12 0.00401766 2.44682e-11
796 1 12.0862 4.18678 0 3131.58 3131.57 0.00497806 -5.43851e-11 -0.0007334 6.00018e-11
797 1 10.4747 4.18678 2.279 873.222 873.227 6369.33 -1.06134e-11 0.00401889 3.78123e-11
817 1 9.66896 5.58238 0 3131.58 3131.57 0.00497806 -9.73489e-11 -0.0007334 -2.5659e-11
819 1 11.2805 5.58238 4.55799 8.27548 8.28043 143.595 4.77682e-13 0.00401766 5.33804e-11
770 1 12.8919 0 2.279 873.222 873.227 6369.33 -3.24282e-11 0.00401889 -1.2173e-10
774 1 13.6977 1.39559 4.55799 8.27548 8.28043 143.595 -4.5548e-11 0.00401766 -1.38624e-11
794 1 12.8919 2.79119 2.279 873.222 873.227 6369.33 -8.43196e-12 0.00401889 -2.6727e-11
798 1 13.6977 4.18678 4.55799 8.27548 8.28043 143.595 5.99805e-10 0.00401766 3.95359e-11
818 1 12.8919 5.58238 2.279 873.222 873.227 6369.33 2.70726e-11 0.00401889 1.30443e-10
1153 1 14.5034 0 0 3131.58 3131.57 0.00497806 8.60427e-11 -0.0007334 2.61201e-10
1154 1 17.7264 0 2.279 873.222 873.227 6369.33 1.58428e-11 0.00401889 -5.94105e-11
1155 1 16.1149 0 4.55799 8.27548 8.28043 143.595 9.50568e-11 0.00401766 1.63162e-10
1156 1 16.9207 1.39559 0 3131.58 3131.57 0.00497806 6.53003e-12 -0.0007334 -1.45965e-11
1157 1 15.3092 1.39559 2.279 873.222 873.227 6369.33 1.58428e-10 0.00401889 -1.74271e-10
1158 1 18.5322 1.39559 4.55799 8.27548 8.28043 143.595 -3.36659e-11 0.00401766 -9.90175e-12
1177 1 14.5034 2.79119 0 3131.58 3131.57 0.00497806 -4.04766e-11 -0.0007334 -3.59692e-11
1178 1 17.7264 2.79119 2.279 873.222 873.227 6369.33 2.50947e-10 0.00401889 4.06281e-11
1179 1 16.1149 2.79119 4.55799 8.27548 8.28043 143.595 1.15479e-10 0.00401766 -1.33983e-10
1180 1 16.9207 4.18678 0 3131.58 3131.57 0.00497806 -6.76496e-11 -0.0007334 4.40608e-11
1181 1 15.3092 4.18678 2.279 873.222 873.227 6369.33 5.20074e-10 0.00401889 -1.12687e-10
1182 1 18.5322 4.18678 4.55799 8.27548 8.28043 143.595 4.528e-10 0.00401766 2.14319e-10
1201 1 14.5034 5.58238 0 3131.58 3131.57 0.00497806 -6.04611e-11 -0.0007334 -3.08446e-11
1202 1 17.7264 5.58238 2.279 873.222 873.227 6369.33 2.71259e-10 0.00401889 1.94173e-11
1203 1 16.1149 5.58238 4.55799 8.27548 8.28043 143.595 1.74726e-10 0.00401766 -9.48707e-11
52 1 2.41724 6.97797 0 3131.58 3131.57 0.00497806 -1.22918e-11 -0.0007334 -2.76566e-11
53 1 0.805747 6.97797 2.279 873.222 873.227 6369.33 1.109e-10 0.00401889 1.40605e-10
54 1 4.02873 6.97797 4.55799 8.27548 8.28043 143.595 5.14891e-11 0.00401766 1.58428e-10
73 1 0 8.37356 0 3131.58 3131.57 0.00497806 9.173e-11 -0.0007334 1.8668e-11
74 1 3.22299 8.37356 2.279 873.222 873.227 6369.33 -1.713e-10 0.00401889 2.37642e-11
75 1 1.61149 8.37356 4.55799 8.27548 8.28043 143.595 -3.66365e-10 0.00401766 1.02978e-10
76 1 2.41724 9.76916 0 3131.58 3131.57 0.00497806 2.48825e-11 -0.0007334 5.71158e-11
77 1 0.805747 9.76916 2.279 873.222 873.227 6369.33 -7.61303e-11 0.00401889 6.19332e-11
78 1 4.02873 9.76916 4.55799 8.27548 8.28043 143.595 -2.00081e-10 0.00401766 6.87418e-11
97 1 0 11.1648 0 3131.58 3131.57 0.00497806 3.18229e-11 -0.0007334 -6.15439e-11
98 1 3.22299 11.1648 2.279 873.222 873.227 6369.33 -9.63928e-11 0.00401889 1.38772e-10
99 1 1.61149 11.1648 4.55799 8.27548 8.28043 143.595 -4.7635e-10 0.00401766 2.05788e-10
437 1 5.64023 6.97797 2.279 873.222 873.227 6369.33 3.14745e-10 0.00401889 4.47679e-11
457 1 4.83448 8.37356 0 3131.58 3131.57 0.00497806 1.05633e-11 -0.0007334 -1.11395e-11
459 1 6.44597 8.37356 4.55799 8.27548 8.28043 143.595 3.09925e-10 0.00401766 1.47536e-10
461 1 5.64023 9.76916 2.279 873.222 873.227 6369.33 4.19002e-12 0.00401889 -4.78713e-11
481 1 4.83448 11.1648 0 3131.58 3131.57 0.00497806 -2.76793e-11 -0.0007334 -5.11871e-11
483 1 6.44597 11.1648 4.55799 8.27548 8.28043 143.595 2.04474e-12 0.00401766 5.73683e-11
436 1 7.25172 6.97797 0 3131.58 3131.57 0.00497806 -1.56564e-11 -0.0007334 -2.15107e-11
438 1 8.86321 6.97797 4.55799 8.27548 8.28043 143.595 -1.08442e-10 0.00401766 1.58428e-10
458 1 8.05747 8.37356 2.279 873.222 873.227 6369.33 4.09932e-10 0.00401889 4.95087e-11
460 1 7.25172 9.76916 0 3131.58 3131.57 0.00497806 3.08979e-11 -0.0007334 5.57346e-11
462 1 8.86321 9.76916 4.55799 8.27548 8.28043 143.595 -9.53041e-11 0.00401766 1.13082e-10
482 1 8.05747 11.1648 2.279 873.222 873.227 6369.33 1.64426e-10 0.00401889 1.3672e-10
820 1 12.0862 6.97797 0 3131.58 3131.57 0.00497806 8.92724e-12 -0.0007334 -2.15107e-11
821 1 10.4747 6.97797 2.279 873.222 873.227 6369.33 1.17513e-11 0.00401889 -5.42496e-11
841 1 9.66896 8.37356 0 3131.58 3131.57 0.00497806 -1.42124e-11 -0.0007334 1.82457e-11
843 1 11.2805 8.37356 4.55799 8.27548 8.28043 143.595 4.25775e-11 0.00401766 1.22782e-10
844 1 12.0862 9.76916 0 3131.58 3131.57 0.00497806 5.36914e-11 -0.0007334 3.11554e-11
845 1 10.4747 9.76916 2.279 873.222 873.227 6369.33 -7.10234e-11 0.00401889 -1.03192e-10
865 1 9.66896 11.1648 0 3131.58 3131.57 0.00497806 -5.0912e-11 -0.0007334 -5.42805e-11
867 1 11.2805 11.1648 4.55799 8.27548 8.28043 143.595 4.6324e-11 0.00401766 4.35821e-11
822 1 13.6977 6.97797 4.55799 8.27548 8.28043 143.595 1.96532e-10 0.00401766 1.58428e-10
842 1 12.8919 8.37356 2.279 873.222 873.227 6369.33 4.95087e-12 0.00401889 2.97052e-11
846 1 13.6977 9.76916 4.55799 8.27548 8.28043 143.595 1.95936e-10 0.00401766 8.40854e-11
866 1 12.8919 11.1648 2.279 873.222 873.227 6369.33 -2.45428e-11 0.00401889 -3.48894e-11
1204 1 16.9207 6.97797 0 3131.58 3131.57 0.00497806 -6.589e-12 -0.0007334 -2.37132e-11
1205 1 15.3092 6.97797 2.279 873.222 873.227 6369.33 2.17708e-10 0.00401889 1.90324e-10
1206 1 18.5322 6.97797 4.55799 8.27548 8.28043 143.595 -1.66571e-10 0.00401766 6.04681e-11
1225 1 14.5034 8.37356 0 3131.58 3131.57 0.00497806 4.09087e-11 -0.0007334 1.40204e-11
1226 1 17.7264 8.37356 2.279 873.222 873.227 6369.33 -1.53255e-10 0.00401889 -3.43185e-11
1227 1 16.1149 8.37356 4.55799 8.27548 8.28043 143.595 -9.89271e-11 0.00401766 5.16131e-11
1228 1 16.9207 9.76916 0 3131.58 3131.57 0.00497806 5.73259e-11 -0.0007334 4.97839e-11
1229 1 15.3092 9.76916 2.279 873.222 873.227 6369.33 1.69621e-10 0.00401889 -6.39451e-11
1230 1 18.5322 9.76916 4.55799 8.27548 8.28043 143.595 -2.60162e-10 0.00401766 -1.46676e-10
1249 1 14.5034 11.1648 0 3131.58 3131.57 0.00497806 1.24769e-11 -0.0007334 -5.7194e-11
1250 1 17.7264 11.1648 2.279 873.222 873.227 6369.33 -3.00023e-10 0.00401889 -1.29799e-10
1251 1 16.1149 11.1648 4.55799 8.27548 8.28043 143.595 -1.79904e-10 0.00401766 -5.25782e-11
100 1 2.41724 12.5603 0 3131.58 3131.57 0.00497806 -1.82757e-12 -0.0007334 -4.22584e-12
101 1 0.805747 12.5603 2.279 873.222 873.227 6369.33 4.971e-11 0.00401889 2.41746e-11
102 1 4.02873 12.5603 4.55799 8.27548 8.28043 143.595 1.40393e-11 0.00401766 -1.70421e-11
121 1 0 13.9559 0 3131.58 3131.57 0.00497806 -4.70105e-11 -0.0007334 6.04947e-11
122 1 3.22299 13.9559 2.279 873.222 873.227 6369.33 1.42911e-10 0.00401889 -9.68051e-11
123 1 1.61149 13.9559 4.55799 8.27548 8.28043 143.595 5.20148e-10 0.00401766 -1.20124e-10
124 1 2.41724 15.3515 0 3131.58 3131.57 0.00497806 -7.15901e-11 -0.0007334 -1.28318e-10
125 1 0.805747 15.3515 2.279 873.222 873.227 6369.33 2.8421e-10 0.00401889 4.69917e-11
126 1 4.02873 15.3515 4.55799 8.27548 8.28043 143.595 3.05929e-10 0.00401766 -3.37616e-11
485 1 5.64023 12.5603 2.279 873.222 873.227 6369.33 6.83237e-11 0.00401889 2.93998e-11
505 1 4.83448 13.9559 0 3131.58 3131.57 0.00497806 2.56981e-11 -0.0007334 6.48939e-11
507 1 6.44597 13.9559 4.55799 8.27548 8.28043 143.595 -3.27892e-11 0.00401766 1.35894e-12
509 1 5.64023 15.3515 2.279 873.222 873.227 6369.33 1.05183e-12 0.00401889 2.02637e-10
484 1 7.25172 12.5603 0 3131.58 3131.57 0.00497806 4.45682e-12 -0.0007334 8.24729e-13
486 1 8.86321 12.5603 4.55799 8.27548 8.28043 143.595 -5.2368e-11 0.00401766 -1.61061e-11
506 1 8.05747 13.9559 2.279 873.222 873.227 6369.33 -1.79218e-10 0.00401889 -1.13111e-10
508 1 7.25172 15.3515 0 3131.58 3131.57 0.00497806 -6.19949e-11 -0.0007334 -1.32863e-10
510 1 8.86321 15.3515 4.55799 8.27548 8.28043 143.595 -1.50035e-10 0.00401766 1.59729e-11
868 1 12.0862 12.5603 0 3131.58 3131.57 0.00497806 1.32399e-11 -0.0007334 -8.63623e-12
869 1 10.4747 12.5603 2.279 873.222 873.227 6369.33 1.89542e-11 0.00401889 4.45455e-11
889 1 9.66896 13.9559 0 3131.58 3131.57 0.00497806 4.68726e-11 -0.0007334 6.71527e-11
891 1 11.2805 13.9559 4.55799 8.27548 8.28043 143.595 -1.21283e-11 0.00401766 -2.40339e-11
892 1 12.0862 15.3515 0 3131.58 3131.57 0.00497806 -1.51609e-10 -0.0007334 -1.33036e-10
893 1 10.4747 15.3515 2.279 873.222 873.227 6369.33 2.94291e-11 0.00401889 7.51422e-11
870 1 13.6977 12.5603 4.55799 8.27548 8.28043 143.595 -4.67339e-12 0.00401766 -4.80197e-11
890 1 12.8919 13.9559 2.279 873.222 873.227 6369.33 -1.23583e-11 0.00401889 -6.1622e-11
894 1 13.6977 15.3515 4.55799 8.27548 8.28043 143.595 4.44126e-10 0.00401766 1.60289e-11
1252 1 16.9207 12.5603 0 3131.58 3131.57 0.00497806 -8.28905e-12 -0.0007334 -2.32236e-12
1253 1 15.3092 12.5603 2.279 873.222 873.227 6369.33 -8.44461e-13 0.00401889 1.60789e-11
1254 1 18.5322 12.5603 4.55799 8.27548 8.28043 143.595 1.9138e-11 0.00401766 -1.61255e-11
1273 1 14.5034 13.9559 0 3131.58 3131.57 0.00497806 -2.02102e-11 -0.0007334 6.74055e-11
1274 1 17.7264 13.9559 2.279 873.222 873.227 6369.33 2.68177e-10 0.00401889 1.10848e-10
1275 1 16.1149 13.9559 4.55799 8.27548 8.28043 143.595 2.34082e-10 0.00401766 1.74881e-11
1276 1 16.9207 15.3515 0 3131.58 3131.57 0.00497806 -1.48548e-10 -0.0007334 -1.33037e-10
1277 1 15.3092 15.3515 2.279 873.222 873.227 6369.33 4.33132e-10 0.00401889 1.97684e-10
1278 1 18.5322 15.3515 4.55799 8.27548 8.28043 143.595 4.32509e-10 0.00401766 1.90537e-10
145 1 0 16.7471 0 3131.58 3131.57 0.00497806 1.01998e-10 -0.0007334 3.36355e-11
146 1 3.22299 16.7471 2.279 873.222 873.227 6369.33 -1.20676e-10 0.00401889 1.23366e-10
147 1 1.61149 16.7471 4.55799 8.27548 8.28043 143.595 -1.36796e-10 0.00401766 1.74912e-10
148 1 2.41724 18.1427 0 3131.58 3131.57 0.00497806 4.82628e-11 -0.0007334 8.52608e-11
149 1 0.805747 18.1427 2.279 873.222 873.227 6369.33 -1.18118e-10 0.00401889 4.36724e-12
150 1 4.02873 18.1427 4.55799 8.27548 8.28043 143.595 9.10151e-11 0.00401766 1.90324e-10
169 1 0 19.5383 0 3131.58 3131.57 0.00497806 4.72467e-11 -0.0007334 -1.23686e-10
170 1 3.22299 19.5383 2.279 873.222 873.227 6369.33 1.26742e-10 0.00401889 2.2675e-10
171 1 1.61149 19.5383 4.55799 8.27548 8.28043 143.595 -4.5152e-10 0.00401766 1.74271e-10
172 1 2.41724 20.9339 0 3131.58 3131.57 0.00497806 8.29698e-11 -0.0007334 1.92444e-10
173 1 0.805747 20.9339 2.279 873.222 873.227 6369.33 3.76266e-10 0.00401889 1.48526e-10
174 1 4.02873 20.9339 4.55799 8.27548 8.28043 143.595 1.7031e-10 0.00401766 3.14876e-10
193 1 0 22.3295 0 3131.58 3131.57 0.00497806 -7.68239e-11 -0.0007334 -1.91291e-10
194 1 3.22299 22.3295 2.279 873.222 873.227 6369.33 6.33712e-11 0.00401889 1.52487e-10
195 1 1.61149 22.3295 4.55799 8.27548 8.28043 143.595 -2.77249e-10 0.00401766 1.50507e-10
529 1 4.83448 16.7471 0 3131.58 3131.57 0.00497806 1.43983e-11 -0.0007334 3.18067e-11
531 1 6.44597 16.7471 4.55799 8.27548 8.28043 143.595 3.64023e-10 0.00401766 8.92252e-11
533 1 5.64023 18.1427 2.279 873.222 873.227 6369.33 3.10327e-10 0.00401889 -3.82532e-11
553 1 4.83448 19.5383 0 3131.58 3131.57 0.00497806 -2.77766e-11 -0.0007334 -1.20103e-10
555 1 6.44597 19.5383 4.55799 8.27548 8.28043 143.595 3.45819e-10 0.00401766 7.02947e-11
557 1 5.64023 20.9339 2.279 873.222 873.227 6369.33 1.26742e-10 0.00401889 -7.9214e-12
577 1 4.83448 22.3295 0 3131.58 3131.57 0.00497806 -9.83345e-11 -0.0007334 -1.97437e-10
579 1 6.44597 22.3295 4.55799 8.27548 8.28043 143.595 1.42585e-10 0.00401766 9.23029e-11
530 1 8.05747 16.7471 2.279 873.222 873.227 6369.33 6.39353e-10 0.00401889 1.69569e-10
532 1 7.25172 18.1427 0 3131.58 3131.57 0.00497806 4.79114e-11 -0.0007334 8.73011e-11
534 1 8.86321 18.1427 4.55799 8.27548 8.28043 143.595 6.67904e-11 0.00401766 2.24827e-10
554 1 8.05747 19.5383 2.279 873.222 873.227 6369.33 4.43769e-10 0.00401889 2.04641e-10
556 1 7.25172 20.9339 0 3131.58 3131.57 0.00497806 8.22015e-11 -0.0007334 1.95901e-10
558 1 8.86321 20.9339 4.55799 8.27548 8.28043 143.595 1.26e-10 0.00401766 2.45706e-10
578 1 8.05747 22.3295 2.279 873.222 873.227 6369.33 9.39428e-11 0.00401889 1.59325e-10
913 1 9.66896 16.7471 0 3131.58 3131.57 0.00497806 -6.85715e-11 -0.0007334 2.87338e-11
915 1 11.2805 16.7471 4.55799 8.27548 8.28043 143.595 -1.22544e-11 0.00401766 -1.95951e-10
916 1 12.0862 18.1427 0 3131.58 3131.57 0.00497806 1.23376e-10 -0.0007334 7.76999e-11
917 1 10.4747 18.1427 2.279 873.222 873.227 6369.33 -7.49439e-11 0.00401889 -2.58792e-10
937 1 9.66896 19.5383 0 3131.58 3131.57 0.00497806 -2.5904e-11 -0.0007334 -1.17967e-10
939 1 11.2805 19.5383 4.55799 8.27548 8.28043 143.595 -1.0434e-10 0.00401766 -2.78324e-10
940 1 12.0862 20.9339 0 3131.58 3131.57 0.00497806 8.06651e-11 -0.0007334 1.87834e-10
941 1 10.4747 20.9339 2.279 873.222 873.227 6369.33 -7.12926e-11 0.0040189 -1.42585e-10
961 1 9.66896 22.3295 0 3131.58 3131.57 0.00497806 -9.21886e-11 -0.0007334 -2.0051e-10
963 1 11.2805 22.3295 4.55799 8.27548 8.28043 143.595 -6.33712e-11 0.00401766 -1.26742e-10
914 1 12.8919 16.7471 2.279 873.222 873.227 6369.33 5.31694e-11 0.00401889 6.36199e-11
918 1 13.6977 18.1427 4.55799 8.27548 8.28043 143.595 6.97609e-11 0.00401766 1.63436e-10
938 1 12.8919 19.5383 2.279 873.222 873.227 6369.33 8.03898e-11 0.00401889 1.56115e-10
942 1 13.6977 20.9339 4.55799 8.27548 8.28043 143.595 5.54498e-11 0.00401766 2.95072e-10
962 1 12.8919 22.3295 2.279 873.222 873.227 6369.33 1.76994e-11 0.00401889 1.28351e-10
1297 1 14.5034 16.7471 0 3131.58 3131.57 0.00497806 2.51546e-11 -0.0007334 3.18067e-11
1298 1 17.7264 16.7471 2.279 873.222 873.227 6369.33 4.52108e-11 0.00401889 8.19801e-12
1299 1 16.1149 16.7471 4.55799 8.27548 8.28043 143.595 -3.59789e-11 0.00401766 1.05068e-10
1300 1 16.9207 18.1427 0 3131.58 3131.57 0.00497806 1.23385e-10 -0.0007334 8.99918e-11
1301 1 15.3092 18.1427 2.279 873.222 873.227 6369.33 -3.92821e-11 0.00401889 -9.54358e-11
1302 1 18.5322 18.1427 4.55799 8.27548 8.28043 143.595 -4.64964e-10 0.00401766 -1.39551e-10
1321 1 14.5034 19.5383 0 3131.58 3131.57 0.00497806 4.47979e-11 -0.0007334 -1.21034e-10
1322 1 17.7264 19.5383 2.279 873.222 873.227 6369.33 -3.65251e-10 0.00401889 -1.22078e-10
1323 1 16.1149 19.5383 4.55799 8.27548 8.28043 143.595 -4.17854e-10 0.00401766 -8.81217e-11
1324 1 16.9207 20.9339 0 3131.58 3131.57 0.00497806 8.29698e-11 -0.0007334 1.96285e-10
1325 1 15.3092 20.9339 2.279 873.222 873.227 6369.33 -5.14891e-11 0.00401889 0
1326 1 18.5322 20.9339 4.55799 8.27548 8.28043 143.595 -3.36659e-11 0.00401766 1.38624e-10
1345 1 14.5034 22.3295 0 3131.58 3131.57 0.00497806 -7.98968e-11 -0.0007334 -2.04351e-10
1346 1 17.7264 22.3295 2.279 873.222 873.227 6369.33 -4.75284e-11 0.00401889 7.9214e-12
1347 1 16.1149 22.3295 4.55799 8.27548 8.28043 143.595 3.16856e-11 0.00401766 -6.33712e-11
7 1 0 0 6.83699 0.0158875 0.00840951 0.147032 -3.16856e-11 -0.00756218 -1.82192e-10
8 1 3.22299 0 9.11598 -0.00867566 -0.00372006 -0.0238001 5.24793e-11 0.00401765 -1.93084e-10
9 1 1.61149 0 11.395 -0.00867566 -0.00372006 -0.0238001 -8.71354e-11 0.00401766 -4.95087e-12
10 1 2.41724 1.39559 6.83699 0.0158875 0.00840951 0.147032 -3.16856e-11 -0.00756218 -5.14891e-11
11 1 0.805747 1.39559 9.11598 -0.00867566 -0.00372006 -0.0238001 1.18821e-11 0.00401766 4.95087e-11
12 1 4.02873 1.39559 11.395 -0.00867566 -0.00372006 -0.0238001 5.14891e-11 0.00401766 -3.9607e-12
31 1 0 2.79119 6.83699 0.0158875 0.00840952 0.147032 0 -0.00756217 1.78231e-11
32 1 3.22299 2.79119 9.11598 -0.00867566 -0.00372006 -0.0238001 -3.93099e-10 0.00401766 1.20801e-10
33 1 1.61149 2.79119 11.395 -0.00867566 -0.00372006 -0.0238001 4.90137e-10 0.00401766 -1.45556e-10
34 1 2.41724 4.18678 6.83699 0.0158875 0.00840952 0.147032 -1.48526e-11 -0.00756218 1.58428e-11
35 1 0.805747 4.18678 9.11598 -0.00867566 -0.00372006 -0.0238001 -5.01029e-10 0.00401766 -1.86153e-10
36 1 4.02873 4.18678 11.395 -0.00867566 -0.00372006 -0.0238001 2.31701e-10 0.00401766 9.40666e-11
55 1 0 5.58238 6.83699 0.0158875 0.00840952 0.147032 2.40613e-10 -0.00756217 9.80273e-11
56 1 3.22299 5.58238 9.11598 -0.00867566 -0.00372006 -0.0238001 -3.00023e-10 0.00401766 1.66349e-10
57 1 1.61149 5.58238 11.395 -0.00867566 -0.00372006 -0.0238001 -1.21792e-10 0.00401766 -1.48526e-11
391 1 4.83448 0 6.83699 0.0158875 0.00840951 0.147032 -9.50568e-11 -0.00756218 -7.9214e-11
393 1 6.44597 0 11.395 -0.00867566 -0.00372006 -0.0238001 0 0.00401765 -1.26742e-10
395 1 5.64023 1.39559 9.11598 -0.00867566 -0.00372006 -0.0238001 1.7031e-10 0.00401766 -1.42585e-10
415 1 4.83448 2.79119 6.83699 0.0158875 0.00840952 0.147032 3.44086e-11 -0.00756218 8.96727e-11
417 1 6.44597 2.79119 11.395 -0.00867566 -0.00372006 -0.0238001 -5.72321e-10 0.00401766 -2.781e-12
419 1 5.64023 4.18678 9.11598 -0.00867566 -0.00372006 -0.0238001 -2.79059e-10 0.00401766 -1.55156e-10
439 1 4.83448 5.58238 6.83699 0.0158875 0.00840952 0.147032 4.83465e-11 -0.00756218 5.88893e-11
441 1 6.44597 5.58238 11.395 -0.00867566 -0.00372006 -0.0238001 2.02628e-11 0.00401766 -1.84273e-10
392 1 8.05747 0 9.11598 -0.00867566 -0.00372006 -0.0238001 -4.64145e-11 0.00401765 -1.85689e-10
394 1 7.25172 1.39559 6.83699 0.0158875 0.00840951 0.147032 7.9214e-12 -0.00756218 0
396 1 8.86321 1.39559 11.395 -0.00867566 -0.00372006 -0.0238001 -1.78231e-11 0.00401766 -4.75284e-11
416 1 8.05747 2.79119 9.11598 -0.00867566 -0.00372006 -0.0238001 -7.58103e-12 0.00401766 1.26541e-10
418 1 7.25172 4.18678 6.83699 0.0158875 0.00840952 0.147032 4.96596e-11 -0.00756218 1.3502e-10
420 1 8.86321 4.18678 11.395 -0.00867566 -0.00372006 -0.0238001 -4.59682e-10 0.00401766 1.46475e-10
440 1 8.05747 5.58238 9.11598 -0.00867566 -0.00372006 -0.0238001 4.26366e-10 0.00401766 1.80088e-10
775 1 9.66896 0 6.83699 0.0158875 0.00840951 0.147032 -1.90114e-10 -0.00756218 6.33712e-11
777 1 11.2805 0 11.395 -0.00867566 -0.00372006 -0.0238001 7.9214e-11 0.00401765 1.26742e-10
778 1 12.0862 1.39559 6.83699 0.0158875 0.00840951 0.147032 -7.9214e-12 -0.00756218 -6.13908e-11
779 1 10.4747 1.39559 9.11598 -0.00867566 -0.00372006 -0.0238001 1.1486e-10 0.00401766 -7.9214e-11
799 1 9.66896 2.79119 6.83699 0.0158875 0.00840952 0.147032 -2.04966e-10 -0.00756218 -3.43467e-11
801 1 11.2805 2.79119 11.395 -0.00867566 -0.00372006 -0.0238001 -3.78742e-11 0.00401766 -1.29496e-10
802 1 12.0862 4.18678 6.83699 0.0158875 0.00840952 0.147032 -4.23485e-10 -0.00756218 -2.33329e-11
803 1 10.4747 4.18678 9.11598 -0.00867566 -0.00372006 -0.0238001 -7.11534e-11 0.00401766 -8.79167e-11
823 1 9.66896 5.58238 6.83699 0.0158875 0.00840951 0.147032 -3.83794e-10 -0.00756218 -3.45691e-11
825 1 11.2805 5.58238 11.395 -0.00867566 -0.00372006 -0.0238001 6.77931e-11 0.00401766 1.1674e-10
776 1 12.8919 0 9.11598 -0.00867566 -0.00372006 -0.0238001 -3.16856e-11 0.00401766 2.77249e-11
780 1 13.6977 1.39559 11.395 -0.00867566 -0.00372006 -0.0238001 1.23772e-12 0.00401766 -4.33878e-11
800 1 12.8919 2.79119 9.11598 -0.00867566 -0.00372006 -0.0238001 4.39081e-11 0.00401766 1.58219e-10
804 1 13.6977 4.18678 11.395 -0.00867566 -0.00372006 -0.0238001 6.11687e-10 0.00401766 1.1875e-10
824 1 12.8919 5.58238 9.11598 -0.00867566 -0.00372006 -0.0238001 -1.12289e-10 0.00401766 -7.33965e-11
1159 1 14.5034 0 6.83699 0.0158875 0.00840951 0.147032 -1.58428e-10 -0.00756218 7.9214e-12
1160 1 17.7264 0 9.11598 -0.00867566 -0.00372006 -0.0238001 7.9214e-12 0.00401766 -8.91157e-11
1161 1 16.1149 0 11.395 -0.00867566 -0.00372006 -0.0238001 4.75284e-11 0.00401766 -8.2463e-11
1162 1 16.9207 1.39559 6.83699 0.0158875 0.00840951 0.147032 3.9607e-12 -0.00756218 -5.11178e-11
1163 1 15.3092 1.39559 9.11598 -0.00867566 -0.00372006 -0.0238001 1.02978e-10 0.00401766 -1.58428e-10
1164 1 18.5322 1.39559 11.395 -0.00867566 -0.00372006 -0.0238001 6.13908e-11 0.00401766 -2.37642e-11
1183 1 14.5034 2.79119 6.83699 0.0158875 0.00840952 0.147032 -2.09174e-10 -0.00756217 -2.03605e-11
1184 1 17.7264 2.79119 9.11598 -0.00867566 -0.00372006 -0.0238001 2.21614e-10 0.00401766 1.02808e-11
1185 1 16.1149 2.79119 11.395 -0.00867566 -0.00372006 -0.0238001 1.83677e-10 0.00401766 -1.14601e-10
1186 1 16.9207 4.18678 6.83699 0.0158875 0.00840952 0.147032 -3.79686e-10 -0.00756218 2.72375e-11
1187 1 15.3092 4.18678 9.11598 -0.00867566 -0.00372006 -0.0238001 4.41711e-10 0.00401766 -2.75052e-10
1188 1 18.5322 4.18678 11.395 -0.00867566 -0.00372006 -0.0238001 4.67763e-10 0.00401766 7.16548e-11
1207 1 14.5034 5.58238 6.83699 0.0158875 0.00840952 0.147032 -2.45107e-10 -0.00756217 -1.13783e-10
1208 1 17.7264 5.58238 9.11598 -0.00867566 -0.00372006 -0.0238001 3.25027e-10 0.00401766 2.46428e-10
1209 1 16.1149 5.58238 11.395 -0.00867566 -0.00372006 -0.0238001 1.27198e-10 0.00401766 -3.48303e-10
58 1 2.41724 6.97797 6.83699 0.0158875 0.00840951 0.147032 3.16856e-11 -0.00756218 1.46546e-10
59 1 0.805747 6.97797 9.11598 -0.00867566 -0.00372006 -0.0238001 7.9214e-11 0.00401766 7.72336e-11
60 1 4.02873 6.97797 11.395 -0.00867566 -0.00372006 -0.0238001 0 0.00401766 -4.75284e-11
79 1 0 8.37356 6.83699 0.0158875 0.00840952 0.147032 4.16864e-10 -0.00756217 1.6932e-10
80 1 3.22299 8.37356 9.11598 -0.00867566 -0.00372006 -0.0238001 -1.91104e-10 0.00401766 -1.78231e-11
81 1 1.61149 8.37356 11.395 -0.00867566 -0.00372006 -0.0238001 -2.68337e-10 0.00401766 1.19811e-10
82 1 2.41724 9.76916 6.83699 0.0158875 0.00840952 0.147032 3.23044e-11 -0.00756218 2.1766e-11
83 1 0.805747 9.76916 9.11598 -0.00867566 -0.00372006 -0.0238001 -1.24022e-10 0.00401766 1.4789e-10
84 1 4.02873 9.76916 11.395 -0.00867566 -0.00372006 -0.0238001 -9.33089e-11 0.00401766 4.99175e-11
103 1 0 11.1648 6.83699 0.0158875 0.00840952 0.147032 4.16024e-10 -0.00756217 1.15519e-10
104 1 3.22299 11.1648 9.11598 -0.00867566 -0.00372006 -0.0238001 -2.07044e-10 0.00401766 2.69689e-11
105 1 1.61149 11.1648 11.395 -0.00867566 -0.00372006 -0.0238001 -4.69291e-10 0.00401766 4.93827e-11
443 1 5.64023 6.97797 9.11598 -0.00867566 -0.00372006 -0.0238001 2.13103e-10 0.00401766 -1.2934e-10
463 1 4.83448 8.37356 6.83699 0.0158875 0.00840952 0.147032 4.35677e-11 -0.00756218 1.06939e-10
465 1 6.44597 8.37356 11.395 -0.00867566 -0.00372006 -0.0238001 1.97045e-10 0.00401766 -1.63379e-10
467 1 5.64023 9.76916 9.11598 -0.00867566 -0.00372006 -0.0238001 2.02678e-13 0.00401766 -1.3471e-10
487 1 4.83448 11.1648 6.83699 0.0158875 0.00840952 0.147032 5.96349e-11 -0.00756218 6.07004e-11
489 1 6.44597 11.1648 11.395 -0.00867566 -0.00372006 -0.0238001 3.74334e-11 0.00401766 -1.01e-10
442 1 7.25172 6.97797 6.83699 0.0158875 0.00840951 0.147032 3.34203e-12 -0.00756218 7.05522e-11
444 1 8.86321 6.97797 11.395 -0.00867566 -0.00372006 -0.0238001 -1.36167e-10 0.00401766 -1.58428e-11
464 1 8.05747 8.37356 9.11598 -0.00867566 -0.00372006 -0.0238001 4.22805e-10 0.00401766 -2.87151e-11
466 1 7.25172 9.76916 6.83699 0.0158875 0.00840952 0.147032 3.70509e-11 -0.00756218 6.33687e-11
468 1 8.86321 9.76916 11.395 -0.00867566 -0.00372006 -0.0238001 -1.29566e-10 0.00401766 6.35671e-11
488 1 8.05747 11.1648 9.11598 -0.00867566 -0.00372006 -0.0238001 1.82234e-10 0.00401766 5.05087e-11
826 1 12.0862 6.97797 6.83699 0.0158875 0.00840951 0.147032 1.77596e-10 -0.00756218 7.05404e-11
827 1 10.4747 6.97797 9.11598 -0.00867566 -0.00372006 -0.0238001 1.50679e-11 0.00401766 3.30486e-11
847 1 9.66896 8.37356 6.83699 0.0158875 0.00840951 0.147032 -1.43575e-10 -0.00756218 -2.07937e-11
849 1 11.2805 8.37356 11.395 -0.00867566 -0.00372006 -0.0238001 1.25752e-10 0.00401766 3.46561e-10
850 1 12.0862 9.76916 6.83699 0.0158875 0.00840952 0.147032 1.94218e-10 -0.00756217 4.96677e-11
851 1 10.4747 9.76916 9.11598 -0.00867566 -0.00372006 -0.0238001 -1.79201e-11 0.00401766 -5.73072e-11
871 1 9.66896 11.1648 6.83699 0.0158875 0.00840952 0.147032 -1.90789e-10 -0.00756218 -5.7698e-11
873 1 11.2805 11.1648 11.395 -0.00867566 -0.00372006 -0.0238001 1.92943e-10 0.00401766 9.11401e-11
828 1 13.6977 6.97797 11.395 -0.00867566 -0.00372006 -0.0238001 2.12374e-10 0.00401766 -1.58428e-11
848 1 12.8919 8.37356 9.11598 -0.00867566 -0.00372006 -0.0238001 -6.83221e-11 0.00401766 -2.11897e-10
852 1 13.6977 9.76916 11.395 -0.00867566 -0.00372006 -0.0238001 1.49329e-10 0.00401766 5.24033e-11
872 1 12.8919 11.1648 9.11598 -0.00867566 -0.00372006 -0.0238001 -3.75885e-11 0.00401766 -5.68025e-11
1210 1 16.9207 6.97797 6.83699 0.0158875 0.00840952 0.147032 2.17203e-10 -0.00756218 2.3012e-11
1211 1 15.3092 6.97797 9.11598 -0.00867566 -0.00372006 -0.0238001 1.25967e-10 0.00401766 -2.75886e-10
1212 1 18.5322 6.97797 11.395 -0.00867566 -0.00372006 -0.0238001 -1.73463e-11 0.00401766 2.17838e-10
1231 1 14.5034 8.37356 6.83699 0.0158875 0.00840952 0.147032 1.86153e-10 -0.00756218 3.9607e-12
1232 1 17.7264 8.37356 9.11598 -0.00867566 -0.00372006 -0.0238001 -2.47544e-11 0.00401766 2.92102e-10
1233 1 16.1149 8.37356 11.395 -0.00867566 -0.00372006 -0.0238001 -1.38624e-10 0.00401766 -2.75269e-10
1234 1 16.9207 9.76916 6.83699 0.0158875 0.00840952 0.147032 1.6932e-10 -0.00756218 8.91157e-12
1235 1 15.3092 9.76916 9.11598 -0.00867566 -0.00372006 -0.0238001 7.82238e-11 0.00401766 -2.12888e-10
1236 1 18.5322 9.76916 11.395 -0.00867566 -0.00372006 -0.0238001 -4.95087e-11 0.00401766 1.97045e-10
1255 1 14.5034 11.1648 6.83699 0.0158875 0.00840952 0.147032 1.90114e-10 -0.00756217 -5.34694e-11
1256 1 17.7264 11.1648 9.11598 -0.00867566 -0.00372006 -0.0238001 -1.46546e-10 0.00401766 2.35662e-10
1257 1 16.1149 11.1648 11.395 -0.00867566 -0.00372006 -0.0238001 -2.8517e-10 0.00401766 -1.74271e-10
106 1 2.41724 12.5603 6.83699 0.0158875 0.00840952 0.147032 7.9214e-12 -0.00756218 0
107 1 0.805747 12.5603 9.11598 -0.00867566 -0.00372006 -0.0238001 -1.98035e-11 0.00401766 3.16856e-11
108 1 4.02873 12.5603 11.395 -0.00867566 -0.00372005 -0.0238001 -6.33712e-11 0.00401766 0
127 1 0 13.9559 6.83699 0.0158875 0.00840952 0.147032 -3.55473e-10 -0.00756217 -8.71354e-11
128 1 3.22299 13.9559 9.11598 -0.00867566 -0.00372006 -0.0238001 1.45556e-10 0.00401766 -5.54498e-11
129 1 1.61149 13.9559 11.395 -0.00867566 -0.00372006 -0.0238001 6.07967e-10 0.00401766 -1.28723e-11
130 1 2.41724 15.3515 6.83699 0.0158875 0.00840951 0.147032 1.58428e-11 -0.00756218 9.20863e-11
131 1 0.805747 15.3515 9.11598 -0.00867566 -0.00372006 -0.0238001 3.32699e-10 0.00401766 2.37642e-11
132 1 4.02873 15.3515 11.395 -0.00867566 -0.00372006 -0.0238001 3.32699e-10 0.00401766 -9.50568e-11
491 1 5.64023 12.5603 9.11598 -0.00867566 -0.00372005 -0.0238001 -1.18821e-11 0.00401766 -3.06954e-11
511 1 4.83448 13.9559 6.83699 0.0158875 0.00840951 0.147032 -1.18821e-11 -0.00756218 -9.90175e-11
513 1 6.44597 13.9559 11.395 -0.00867566 -0.00372006 -0.0238001 1.48526e-11 0.00401766 9.90175e-11
515 1 5.64023 15.3515 9.11598 -0.00867566 -0.00372006 -0.0238001 -5.865e-11 0.00401766 -1.36667e-12