ITEM: TIMESTEP
0
ITEM: NUMBER OF ATOMS
3072
ITEM: BOX BOUNDS pp pp pp
0.0000000000000000e+00 3.8675839478873655e+01
0.0000000000000000e+00 4.4659012656503762e+01
0.0000000000000000e+00 6.0000000000000000e+01
ITEM: ATOMS id type xs ys zs
1 1 0 0 0
2 1 0.0833333 0 0.0379833
3 1 0.0416667 0 0.0759665
4 1 0.0625 0.03125 0
5 1 0.0208333 0.03125 0.0379833
6 1 0.104167 0.03125 0.0759665
25 1 0 0.0625 0
26 1 0.0833333 0.0625 0.0379833
27 1 0.0416667 0.0625 0.0759665
28 1 0.0625 0.09375 0
29 1 0.0208333 0.09375 0.0379833
30 1 0.104167 0.09375 0.0759665
49 1 0 0.125 0
50 1 0.0833333 0.125 0.0379833
51 1 0.0416667 0.125 0.0759665
385 1 0.125 0 0
387 1 0.166667 0 0.0759665
389 1 0.145833 0.03125 0.0379833
409 1 0.125 0.0625 0
411 1 0.166667 0.0625 0.0759665
413 1 0.145833 0.09375 0.0379833
433 1 0.125 0.125 0
435 1 0.166667 0.125 0.0759665
386 1 0.208333 0 0.0379833
388 1 0.1875 0.03125 0
390 1 0.229167 0.03125 0.0759665
410 1 0.208333 0.0625 0.0379833
412 1 0.1875 0.09375 0
414 1 0.229167 0.09375 0.0759665
434 1 0.208333 0.125 0.0379833
769 1 0.25 0 0
771 1 0.291667 0 0.0759665
772 1 0.3125 0.03125 0
773 1 0.270833 0.03125 0.0379833
793 1 0.25 0.0625 0
795 1 0.291667 0.0625 0.0759665
796 1 0.3125 0.09375 0
797 1 0.270833 0.09375 0.0379833
817 1 0.25 0.125 0
819 1 0.291667 0.125 0.0759665
770 1 0.333333 0 0.0379833
774 1 0.354167 0.03125 0.0759665
794 1 0.333333 0.0625 0.0379833
798 1 0.354167 0.09375 0.0759665
818 1 0.333333 0.125 0.0379833
1153 1 0.375 0 0
1154 1 0.458333 0 0.0379833
1155 1 0.416667 0 0.0759665
1156 1 0.4375 0.03125 0
1157 1 0.395833 0.03125 0.0379833
1158 1 0.479167 0.03125 0.0759665
1177 1 0.375 0.0625 0
1178 1 0.458333 0.0625 0.0379833
1179 1 0.416667 0.0625 0.0759665
1180 1 0.4375 0.09375 0
1181 1 0.395833 0.09375 0.0379833
1182 1 0.479167 0.09375 0.0759665
1201 1 0.375 0.125 0
1202 1 0.458333 0.125 0.0379833
1203 1 0.416667 0.125 0.0759665
52 1 0.0625 0.15625 0
53 1 0.0208333 0.15625 0.0379833
54 1 0.104167 0.15625 0.0759665
73 1 0 0.1875 0
74 1 0.0833333 0.1875 0.0379833
75 1 0.0416667 0.1875 0.0759665
76 1 0.0625 0.21875 0
77 1 0.0208333 0.21875 0.0379833
78 1 0.104167 0.21875 0.0759665
97 1 0 0.25 0
98 1 0.0833333 0.25 0.0379833
99 1 0.0416667 0.25 0.0759665
437 1 0.145833 0.15625 0.0379833
457 1 0.125 0.1875 0
459 1 0.166667 0.1875 0.0759665
461 1 0.145833 0.21875 0.0379833
481 1 0.125 0.25 0
483 1 0.166667 0.25 0.0759665
436 1 0.1875 0.15625 0
438 1 0.229167 0.15625 0.0759665
458 1 0.208333 0.1875 0.0379833
460 1 0.1875 0.21875 0
462 1 0.229167 0.21875 0.0759665
482 1 0.208333 0.25 0.0379833
820 1 0.3125 0.15625 0
821 1 0.270833 0.15625 0.0379833
841 1 0.25 0.1875 0
843 1 0.291667 0.1875 0.0759665
844 1 0.3125 0.21875 0
845 1 0.270833 0.21875 0.0379833
865 1 0.25 0.25 0
867 1 0.291667 0.25 0.0759665
822 1 0.354167 0.15625 0.0759665
842 1 0.333333 0.1875 0.0379833
846 1 0.354167 0.21875 0.0759665
866 1 0.333333 0.25 0.0379833
1204 1 0.4375 0.15625 0
1205 1 0.395833 0.15625 0.0379833
1206 1 0.479167 0.15625 0.0759665
1225 1 0.375 0.1875 0
1226 1 0.458333 0.1875 0.0379833
1227 1 0.416667 0.1875 0.0759665
1228 1 0.4375 0.21875 0
1229 1 0.395833 0.21875 0.0379833
1230 1 0.479167 0.21875 0.0759665
1249 1 0.375 0.25 0
1250 1 0.458333 0.25 0.0379833
1251 1 0.416667 0.25 0.0759665
100 1 0.0625 0.28125 0
101 1 0.0208333 0.28125 0.0379833
102 1 0.104167 0.28125 0.0759665
121 1 0 0.3125 0
122 1 0.0833333 0.3125 0.0379833
123 1 0.0416667 0.3125 0.0759665
124 1 0.0625 0.34375 0
125 1 0.0208333 0.34375 0.0379833
126 1 0.104167 0.34375 0.0759665
485 1 0.145833 0.28125 0.0379833
505 1 0.125 0.3125 0
507 1 0.166667 0.3125 0.0759665
509 1 0.145833 0.34375 0.0379833
484 1 0.1875 0.28125 0
486 1 0.229167 0.28125 0.0759665
506 1 0.208333 0.3125 0.0379833
508 1 0.1875 0.34375 0
510 1 0.229167 0.34375 0.0759665
868 1 0.3125 0.28125 0
869 1 0.270833 0.28125 0.0379833
889 1 0.25 0.3125 0
891 1 0.291667 0.3125 0.0759665
892 1 0.3125 0.34375 0
893 1 0.270833 0.34375 0.0379833
870 1 0.354167 0.28125 0.0759665
890 1 0.333333 0.3125 0.0379833
894 1 0.354167 0.34375 0.0759665
1252 1 0.4375 0.28125 0
1253 1 0.395833 0.28125 0.0379833
1254 1 0.479167 0.28125 0.0759665
1273 1 0.375 0.3125 0
1274 1 0.458333 0.3125 0.0379833
1275 1 0.416667 0.3125 0.0759665
1276 1 0.4375 0.34375 0
1277 1 0.395833 0.34375 0.0379833
1278 1 0.479167 0.34375 0.0759665
145 1 0 0.375 0
146 1 0.0833333 0.375 0.0379833
147 1 0.0416667 0.375 0.0759665
148 1 0.0625 0.40625 0
149 1 0.0208333 0.40625 0.0379833
150 1 0.104167 0.40625 0.0759665
169 1 0 0.4375 0
170 1 0.0833333 0.4375 0.0379833
171 1 0.0416667 0.4375 0.0759665
172 1 0.0625 0.46875 0
173 1 0.0208333 0.46875 0.0379833
174 1 0.104167 0.46875 0.0759665
193 1 0 0.5 0
194 1 0.0833333 0.5 0.0379833
195 1 0.0416667 0.5 0.0759665
529 1 0.125 0.375 0
531 1 0.166667 0.375 0.0759665
533 1 0.145833 0.40625 0.0379833
553 1 0.125 0.4375 0
555 1 0.166667 0.4375 0.0759665
557 1 0.145833 0.46875 0.0379833
577 1 0.125 0.5 0
579 1 0.166667 0.5 0.0759665
530 1 0.208333 0.375 0.0379833
532 1 0.1875 0.40625 0
534 1 0.229167 0.40625 0.0759665
554 1 0.208333 0.4375 0.0379833
556 1 0.1875 0.46875 0
558 1 0.229167 0.46875 0.0759665
578 1 0.208333 0.5 0.0379833
913 1 0.25 0.375 0
915 1 0.291667 0.375 0.0759665
916 1 0.3125 0.40625 0
917 1 0.270833 0.40625 0.0379833
937 1 0.25 0.4375 0
939 1 0.291667 0.4375 0.0759665
940 1 0.3125 0.46875 0
941 1 0.270833 0.46875 0.0379833
961 1 0.25 0.5 0
963 1 0.291667 0.5 0.0759665
914 1 0.333333 0.375 0.0379833
918 1 0.354167 0.40625 0.0759665
938 1 0.333333 0.4375 0.0379833
942 1 0.354167 0.46875 0.0759665
962 1 0.333333 0.5 0.0379833
1297 1 0.375 0.375 0
1298 1 0.458333 0.375 0.0379833
1299 1 0.416667 0.375 0.0759665
1300 1 0.4375 0.40625 0
1301 1 0.395833 0.40625 0.0379833
1302 1 0.479167 0.40625 0.0759665
1321 1 0.375 0.4375 0
1322 1 0.458333 0.4375 0.0379833
1323 1 0.416667 0.4375 0.0759665
1324 1 0.4375 0.46875 0
1325 1 0.395833 0.46875 0.0379833
1326 1 0.479167 0.46875 0.0759665
1345 1 0.375 0.5 0
1346 1 0.458333 0.5 0.0379833
1347 1 0.416667 0.5 0.0759665
7 1 0 0 0.11395
8 1 0.0833333 0 0.151933
9 1 0.0416667 0 0.189916
10 1 0.0625 0.03125 0.11395
11 1 0.0208333 0.03125 0.151933
12 1 0.104167 0.03125 0.189916
31 1 0 0.0625 0.11395
32 1 0.0833333 0.0625 0.151933
33 1 0.0416667 0.0625 0.189916
34 1 0.0625 0.09375 0.11395
35 1 0.0208333 0.09375 0.151933
36 1 0.104167 0.09375 0.189916
55 1 0 0.125 0.11395
56 1 0.0833333 0.125 0.151933
57 1 0.0416667 0.125 0.189916
391 1 0.125 0 0.11395
393 1 0.166667 0 0.189916
395 1 0.145833 0.03125 0.151933
415 1 0.125 0.0625 0.11395
417 1 0.166667 0.0625 0.189916
419 1 0.145833 0.09375 0.151933
439 1 0.125 0.125 0.11395
441 1 0.166667 0.125 0.189916
392 1 0.208333 0 0.151933
394 1 0.1875 0.03125 0.11395
396 1 0.229167 0.03125 0.189916
416 1 0.208333 0.0625 0.151933
418 1 0.1875 0.09375 0.11395
420 1 0.229167 0.09375 0.189916
440 1 0.208333 0.125 0.151933
775 1 0.25 0 0.11395
777 1 0.291667 0 0.189916
778 1 0.3125 0.03125 0.11395
779 1 0.270833 0.03125 0.151933
799 1 0.25 0.0625 0.11395
801 1 0.291667 0.0625 0.189916
802 1 0.3125 0.09375 0.11395
803 1 0.270833 0.09375 0.151933
823 1 0.25 0.125 0.11395
825 1 0.291667 0.125 0.189916
776 1 0.333333 0 0.151933
780 1 0.354167 0.03125 0.189916
800 1 0.333333 0.0625 0.151933
804 1 0.354167 0.09375 0.189916
824 1 0.333333 0.125 0.151933
1159 1 0.375 0 0.11395
1160 1 0.458333 0 0.151933
1161 1 0.416667 0 0.189916
1162 1 0.4375 0.03125 0.11395
1163 1 0.395833 0.03125 0.151933
1164 1 0.479167 0.03125 0.189916
1183 1 0.375 0.0625 0.11395
1184 1 0.458333 0.0625 0.151933
1185 1 0.416667 0.0625 0.189916
1186 1 0.4375 0.09375 0.11395
1187 1 0.395833 0.09375 0.151933
1188 1 0.479167 0.09375 0.189916
1207 1 0.375 0.125 0.11395
1208 1 0.458333 0.125 0.151933
1209 1 0.416667 0.125 0.189916
58 1 0.0625 0.15625 0.11395
59 1 0.0208333 0.15625 0.151933
60 1 0.104167 0.15625 0.189916
79 1 0 0.1875 0.11395
80 1 0.0833333 0.1875 0.151933
81 1 0.0416667 0.1875 0.189916
82 1 0.0625 0.21875 0.11395
83 1 0.0208333 0.21875 0.151933
84 1 0.104167 0.21875 0.189916
103 1 0 0.25 0.11395
104 1 0.0833333 0.25 0.151933
105 1 0.0416667 0.25 0.189916
443 1 0.145833 0.15625 0.151933
463 1 0.125 0.1875 0.11395
465 1 0.166667 0.1875 0.189916
467 1 0.145833 0.21875 0.151933
487 1 0.125 0.25 0.11395
489 1 0.166667 0.25 0.189916
442 1 0.1875 0.15625 0.11395
444 1 0.229167 0.15625 0.189916
464 1 0.208333 0.1875 0.151933
466 1 0.1875 0.21875 0.11395
468 1 0.229167 0.21875 0.189916
488 1 0.208333 0.25 0.151933
826 1 0.3125 0.15625 0.11395
827 1 0.270833 0.15625 0.151933
847 1 0.25 0.1875 0.11395
849 1 0.291667 0.1875 0.189916
850 1 0.3125 0.21875 0.11395
851 1 0.270833 0.21875 0.151933
871 1 0.25 0.25 0.11395
873 1 0.291667 0.25 0.189916
828 1 0.354167 0.15625 0.189916
848 1 0.333333 0.1875 0.151933
852 1 0.354167 0.21875 0.189916
872 1 0.333333 0.25 0.151933
1210 1 0.4375 0.15625 0.11395
1211 1 0.395833 0.15625 0.151933
1212 1 0.479167 0.15625 0.189916
1231 1 0.375 0.1875 0.11395
1232 1 0.458333 0.1875 0.151933
1233 1 0.416667 0.1875 0.189916
1234 1 0.4375 0.21875 0.11395
1235 1 0.395833 0.21875 0.151933
1236 1 0.479167 0.21875 0.189916
1255 1 0.375 0.25 0.11395
1256 1 0.458333 0.25 0.151933
1257 1 0.416667 0.25 0.189916
106 1 0.0625 0.28125 0.11395
107 1 0.0208333 0.28125 0.151933
108 1 0.104167 0.28125 0.189916
127 1 0 0.3125 0.11395
128 1 0.0833333 0.3125 0.151933
129 1 0.0416667 0.3125 0.189916
130 1 0.0625 0.34375 0.11395
131 1 0.0208333 0.34375 0.151933
132 1 0.104167 0.34375 0.189916
491 1 0.145833 0.28125 0.151933
511 1 0.125 0.3125 0.11395
513 1 0.166667 0.3125 0.189916
515 1 0.145833 0.34375 0.151933
490 1 0.1875 0.28125 0.11395
492 1 0.229167 0.28125 0.189916
512 1 0.208333 0.3125 0.151933
514 1 0.1875 0.34375 0.11395
516 1 0.229167 0.34375 0.189916
874 1 0.3125 0.28125 0.11395
875 1 0.270833 0.28125 0.151933
895 1 0.25 0.3125 0.11395
897 1 0.291667 0.3125 0.189916
898 1 0.3125 0.34375 0.11395
899 1 0.270833 0.34375 0.151933
876 1 0.354167 0.28125 0.189916
896 1 0.333333 0.3125 0.151933
900 1 0.354167 0.34375 0.189916
1258 1 0.4375 0.28125 0.11395
1259 1 0.395833 0.28125 0.151933
1260 1 0.479167 0.28125 0.189916
1279 1 0.375 0.3125 0.11395
1280 1 0.458333 0.3125 0.151933
1281 1 0.416667 0.3125 0.189916
1282 1 0.4375 0.34375 0.11395
1283 1 0.395833 0.34375 0.151933
1284 1 0.479167 0.34375 0.189916
151 1 0 0.375 0.11395
152 1 0.0833333 0.375 0.151933
153 1 0.0416667 0.375 0.189916
154 1 0.0625 0.40625 0.11395
155 1 0.0208333 0.40625 0.151933
156 1 0.104167 0.40625 0.189916
175 1 0 0.4375 0.11395
176 1 0.0833333 0.4375 0.151933
177 1 0.0416667 0.4375 0.189916
178 1 0.0625 0.46875 0.11395
179 1 0.0208333 0.46875 0.151933
180 1 0.104167 0.46875 0.189916
199 1 0 0.5 0.11395
200 1 0.0833333 0.5 0.151933
201 1 0.0416667 0.5 0.189916
535 1 0.125 0.375 0.11395
537 1 0.166667 0.375 0.189916
539 1 0.145833 0.40625 0.151933
559 1 0.125 0.4375 0.11395
561 1 0.166667 0.4375 0.189916
563 1 0.145833 0.46875 0.151933
583 1 0.125 0.5 0.11395
585 1 0.166667 0.5 0.189916
536 1 0.208333 0.375 0.151933
538 1 0.1875 0.40625 0.11395
540 1 0.229167 0.40625 0.189916
560 1 0.208333 0.4375 0.151933
562 1 0.1875 0.46875 0.11395
564 1 0.229167 0.46875 0.189916
584 1 0.208333 0.5 0.151933
919 1 0.25 0.375 0.11395
921 1 0.291667 0.375 0.189916
922 1 0.3125 0.40625 0.11395
923 1 0.270833 0.40625 0.151933
943 1 0.25 0.4375 0.11395
945 1 0.291667 0.4375 0.189916
946 1 0.3125 0.46875 0.11395
947 1 0.270833 0.46875 0.151933
967 1 0.25 0.5 0.11395
969 1 0.291667 0.5 0.189916
920 1 0.333333 0.375 0.151933
924 1 0.354167 0.40625 0.189916
944 1 0.333333 0.4375 0.151933
948 1 0.354167 0.46875 0.189916
968 1 0.333333 0.5 0.151933
1303 1 0.375 0.375 0.11395
1304 1 0.458333 0.375 0.151933
1305 1 0.416667 0.375 0.189916
1306 1 0.4375 0.40625 0.11395
1307 1 0.395833 0.40625 0.151933
1308 1 0.479167 0.40625 0.189916
1327 1 0.375 0.4375 0.11395
1328 1 0.458333 0.4375 0.151933
1329 1 0.416667 0.4375 0.189916
1330 1 0.4375 0.46875 0.11395
1331 1 0.395833 0.46875 0.151933
1332 1 0.479167 0.46875 0.189916
1351 1 0.375 0.5 0.11395
1352 1 0.458333 0.5 0.151933
1353 1 0.416667 0.5 0.189916
13 1 0 0 0.2279
14 1 0.0833333 0 0.265883
16 1 0.0625 0.03125 0.2279
17 1 0.0208333 0.03125 0.265883
37 1 0 0.0625 0.2279
38 1 0.0833333 0.0625 0.265883
40 1 0.0625 0.09375 0.2279
41 1 0.0208333 0.09375 0.265883
61 1 0 0.125 0.2279
62 1 0.0833333 0.125 0.265883
397 1 0.125 0 0.2279
401 1 0.145833 0.03125 0.265883
421 1 0.125 0.0625 0.2279
425 1 0.145833 0.09375 0.265883
445 1 0.125 0.125 0.2279
398 1 0.208333 0 0.265883
400 1 0.1875 0.03125 0.2279
422 1 0.208333 0.0625 0.265883
424 1 0.1875 0.09375 0.2279
446 1 0.208333 0.125 0.265883
781 1 0.25 0 0.2279
784 1 0.3125 0.03125 0.2279
785 1 0.270833 0.03125 0.265883
805 1 0.25 0.0625 0.2279
808 1 0.3125 0.09375 0.2279
809 1 0.270833 0.09375 0.265883
829 1 0.25 0.125 0.2279
782 1 0.333333 0 0.265883
806 1 0.333333 0.0625 0.265883
830 1 0.333333 0.125 0.265883
1165 1 0.375 0 0.2279
1166 1 0.458333 0 0.265883
1168 1 0.4375 0.03125 0.2279
1169 1 0.395833 0.03125 0.265883
1189 1 0.375 0.0625 0.2279
1190 1 0.458333 0.0625 0.265883
1192 1 0.4375 0.09375 0.2279
1193 1 0.395833 0.09375 0.265883
1213 1 0.375 0.125 0.2279
1214 1 0.458333 0.125 0.265883
64 1 0.0625 0.15625 0.2279
65 1 0.0208333 0.15625 0.265883
85 1 0 0.1875 0.2279
86 1 0.0833333 0.1875 0.265883
88 1 0.0625 0.21875 0.2279
89 1 0.0208333 0.21875 0.265883
109 1 0 0.25 0.2279
110 1 0.0833333 0.25 0.265883
449 1 0.145833 0.15625 0.265883
469 1 0.125 0.1875 0.2279
473 1 0.145833 0.21875 0.265883
493 1 0.125 0.25 0.2279
448 1 0.1875 0.15625 0.2279
470 1 0.208333 0.1875 0.265883
472 1 0.1875 0.21875 0.2279
494 1 0.208333 0.25 0.265883
832 1 0.3125 0.15625 0.2279
833 1 0.270833 0.15625 0.265883
853 1 0.25 0.1875 0.2279
856 1 0.3125 0.21875 0.2279
857 1 0.270833 0.21875 0.265883
877 1 0.25 0.25 0.2279
854 1 0.333333 0.1875 0.265883
878 1 0.333333 0.25 0.265883
1216 1 0.4375 0.15625 0.2279
1217 1 0.395833 0.15625 0.265883
1237 1 0.375 0.1875 0.2279
1238 1 0.458333 0.1875 0.265883
1240 1 0.4375 0.21875 0.2279
1241 1 0.395833 0.21875 0.265883
1261 1 0.375 0.25 0.2279
1262 1 0.458333 0.25 0.265883
112 1 0.0625 0.28125 0.2279
113 1 0.0208333 0.28125 0.265883
133 1 0 0.3125 0.2279
134 1 0.0833333 0.3125 0.265883
136 1 0.0625 0.34375 0.2279
137 1 0.0208333 0.34375 0.265883
497 1 0.145833 0.28125 0.265883
517 1 0.125 0.3125 0.2279
521 1 0.145833 0.34375 0.265883
496 1 0.1875 0.28125 0.2279
518 1 0.208333 0.3125 0.265883
520 1 0.1875 0.34375 0.2279
880 1 0.3125 0.28125 0.2279
881 1 0.270833 0.28125 0.265883
901 1 0.25 0.3125 0.2279
904 1 0.3125 0.34375 0.2279
905 1 0.270833 0.34375 0.265883
902 1 0.333333 0.3125 0.265883
1264 1 0.4375 0.28125 0.2279
1265 1 0.395833 0.28125 0.265883
1285 1 0.375 0.3125 0.2279
1286 1 0.458333 0.3125 0.265883
1288 1 0.4375 0.34375 0.2279
1289 1 0.395833 0.34375 0.265883
157 1 0 0.375 0.2279
158 1 0.0833333 0.375 0.265883
160 1 0.0625 0.40625 0.2279
161 1 0.0208333 0.40625 0.265883
181 1 0 0.4375 0.2279
182 1 0.0833333 0.4375 0.265883
184 1 0.0625 0.46875 0.2279
185 1 0.0208333 0.46875 0.265883
205 1 0 0.5 0.2279
206 1 0.0833333 0.5 0.265883
541 1 0.125 0.375 0.2279
545 1 0.145833 0.40625 0.265883
565 1 0.125 0.4375 0.2279
569 1 0.145833 0.46875 0.265883
589 1 0.125 0.5 0.2279
542 1 0.208333 0.375 0.265883
544 1 0.1875 0.40625 0.2279
566 1 0.208333 0.4375 0.265883
568 1 0.1875 0.46875 0.2279
590 1 0.208333 0.5 0.265883
925 1 0.25 0.375 0.2279
928 1 0.3125 0.40625 0.2279
929 1 0.270833 0.40625 0.265883
949 1 0.25 0.4375 0.2279
952 1 0.3125 0.46875 0.2279
953 1 0.270833 0.46875 0.265883
973 1 0.25 0.5 0.2279
926 1 0.333333 0.375 0.265883
950 1 0.333333 0.4375 0.265883
974 1 0.333333 0.5 0.265883
1309 1 0.375 0.375 0.2279
1310 1 0.458333 0.375 0.265883
1312 1 0.4375 0.40625 0.2279
1313 1 0.395833 0.40625 0.265883
1333 1 0.375 0.4375 0.2279
1334 1 0.458333 0.4375 0.265883
1336 1 0.4375 0.46875 0.2279
1337 1 0.395833 0.46875 0.265883
1357 1 0.375 0.5 0.2279
1358 1 0.458333 0.5 0.265883
15 1 0.0416667 0 0.303866
18 1 0.104167 0.03125 0.303866
19 1 0 0 0.341849
20 1 0.0833333 0 0.379833
22 1 0.0625 0.03125 0.341849
23 1 0.0208333 0.03125 0.379833
39 1 0.0416667 0.0625 0.303866
42 1 0.104167 0.09375 0.303866
43 1 0 0.0625 0.341849
44 1 0.0833333 0.0625 0.379833
46 1 0.0625 0.09375 0.341849
47 1 0.0208333 0.09375 0.379833
63 1 0.0416667 0.125 0.303866
67 1 0 0.125 0.341849
68 1 0.0833333 0.125 0.379833
399 1 0.166667 0 0.303866
403 1 0.125 0 0.341849
407 1 0.145833 0.03125 0.379833
423 1 0.166667 0.0625 0.303866
427 1 0.125 0.0625 0.341849
431 1 0.145833 0.09375 0.379833
447 1 0.166667 0.125 0.303866
451 1 0.125 0.125 0.341849
402 1 0.229167 0.03125 0.303866
404 1 0.208333 0 0.379833
406 1 0.1875 0.03125 0.341849
426 1 0.229167 0.09375 0.303866
428 1 0.208333 0.0625 0.379833
430 1 0.1875 0.09375 0.341849
452 1 0.208333 0.125 0.379833
783 1 0.291667 0 0.303866
787 1 0.25 0 0.341849
790 1 0.3125 0.03125 0.341849
791 1 0.270833 0.03125 0.379833
807 1 0.291667 0.0625 0.303866
811 1 0.25 0.0625 0.341849
814 1 0.3125 0.09375 0.341849
815 1 0.270833 0.09375 0.379833
831 1 0.291667 0.125 0.303866
835 1 0.25 0.125 0.341849
786 1 0.354167 0.03125 0.303866
788 1 0.333333 0 0.379833
810 1 0.354167 0.09375 0.303866
812 1 0.333333 0.0625 0.379833
836 1 0.333333 0.125 0.379833
1167 1 0.416667 0 0.303866
1170 1 0.479167 0.03125 0.303866
1171 1 0.375 0 0.341849
1172 1 0.458333 0 0.379833
1174 1 0.4375 0.03125 0.341849
1175 1 0.395833 0.03125 0.379833
1191 1 0.416667 0.0625 0.303866
1194 1 0.479167 0.09375 0.303866
1195 1 0.375 0.0625 0.341849
1196 1 0.458333 0.0625 0.379833
1198 1 0.4375 0.09375 0.341849
1199 1 0.395833 0.09375 0.379833
1215 1 0.416667 0.125 0.303866
1219 1 0.375 0.125 0.341849
1220 1 0.458333 0.125 0.379833
66 1 0.104167 0.15625 0.303866
70 1 0.0625 0.15625 0.341849
71 1 0.0208333 0.15625 0.379833
87 1 0.0416667 0.1875 0.303866
90 1 0.104167 0.21875 0.303866
91 1 0 0.1875 0.341849
92 1 0.0833333 0.1875 0.379833
94 1 0.0625 0.21875 0.341849
95 1 0.0208333 0.21875 0.379833
111 1 0.0416667 0.25 0.303866
115 1 0 0.25 0.341849
116 1 0.0833333 0.25 0.379833
455 1 0.145833 0.15625 0.379833
471 1 0.166667 0.1875 0.303866
475 1 0.125 0.1875 0.341849
479 1 0.145833 0.21875 0.379833
495 1 0.166667 0.25 0.303866
499 1 0.125 0.25 0.341849
450 1 0.229167 0.15625 0.303866
454 1 0.1875 0.15625 0.341849
474 1 0.229167 0.21875 0.303866
476 1 0.208333 0.1875 0.379833
478 1 0.1875 0.21875 0.341849
500 1 0.208333 0.25 0.379833
838 1 0.3125 0.15625 0.341849
839 1 0.270833 0.15625 0.379833
855 1 0.291667 0.1875 0.303866
859 1 0.25 0.1875 0.341849
862 1 0.3125 0.21875 0.341849
863 1 0.270833 0.21875 0.379833
879 1 0.291667 0.25 0.303866
883 1 0.25 0.25 0.341849
834 1 0.354167 0.15625 0.303866
858 1 0.354167 0.21875 0.303866
860 1 0.333333 0.1875 0.379833
884 1 0.333333 0.25 0.379833
1218 1 0.479167 0.15625 0.303866
1222 1 0.4375 0.15625 0.341849
1223 1 0.395833 0.15625 0.379833
1239 1 0.416667 0.1875 0.303866
1242 1 0.479167 0.21875 0.303866
1243 1 0.375 0.1875 0.341849
1244 1 0.458333 0.1875 0.379833
1246 1 0.4375 0.21875 0.341849
1247 1 0.395833 0.21875 0.379833
1263 1 0.416667 0.25 0.303866
1267 1 0.375 0.25 0.341849
1268 1 0.458333 0.25 0.379833
114 1 0.104167 0.28125 0.303866
118 1 0.0625 0.28125 0.341849
119 1 0.0208333 0.28125 0.379833
135 1 0.0416667 0.3125 0.303866
138 1 0.104167 0.34375 0.303866
139 1 0 0.3125 0.341849
140 1 0.0833333 0.3125 0.379833
142 1 0.0625 0.34375 0.341849
143 1 0.0208333 0.34375 0.379833
503 1 0.145833 0.28125 0.379833
519 1 0.166667 0.3125 0.303866
523 1 0.125 0.3125 0.341849
527 1 0.145833 0.34375 0.379833
498 1 0.229167 0.28125 0.303866
502 1 0.1875 0.28125 0.341849
522 1 0.229167 0.34375 0.303866
524 1 0.208333 0.3125 0.379833
526 1 0.1875 0.34375 0.341849
886 1 0.3125 0.28125 0.341849
887 1 0.270833 0.28125 0.379833
903 1 0.291667 0.3125 0.303866
907 1 0.25 0.3125 0.341849
910 1 0.3125 0.34375 0.341849
911 1 0.270833 0.34375 0.379833
882 1 0.354167 0.28125 0.303866
906 1 0.354167 0.34375 0.303866
908 1 0.333333 0.3125 0.379833
1266 1 0.479167 0.28125 0.303866
1270 1 0.4375 0.28125 0.341849
1271 1 0.395833 0.28125 0.379833
1287 1 0.416667 0.3125 0.303866
1290 1 0.479167 0.34375 0.303866
1291 1 0.375 0.3125 0.341849
1292 1 0.458333 0.3125 0.379833
1294 1 0.4375 0.34375 0.341849
1295 1 0.395833 0.34375 0.379833
159 1 0.0416667 0.375 0.303866
162 1 0.104167 0.40625 0.303866
163 1 0 0.375 0.341849
164 1 0.0833333 0.375 0.379833
166 1 0.0625 0.40625 0.341849
167 1 0.0208333 0.40625 0.379833
183 1 0.0416667 0.4375 0.303866
186 1 0.104167 0.46875 0.303866
187 1 0 0.4375 0.341849
188 1 0.0833333 0.4375 0.379833
190 1 0.0625 0.46875 0.341849
191 1 0.0208333 0.46875 0.379833
207 1 0.0416667 0.5 0.303866
211 1 0 0.5 0.341849
212 1 0.0833333 0.5 0.379833
543 1 0.166667 0.375 0.303866
547 1 0.125 0.375 0.341849
551 1 0.145833 0.40625 0.379833
567 1 0.166667 0.4375 0.303866
571 1 0.125 0.4375 0.341849
575 1 0.145833 0.46875 0.379833
591 1 0.166667 0.5 0.303866
595 1 0.125 0.5 0.341849
546 1 0.229167 0.40625 0.303866
548 1 0.208333 0.375 0.379833
550 1 0.1875 0.40625 0.341849
570 1 0.229167 0.46875 0.303866
572 1 0.208333 0.4375 0.379833
574 1 0.1875 0.46875 0.341849
596 1 0.208333 0.5 0.379833
927 1 0.291667 0.375 0.303866
931 1 0.25 0.375 0.341849
934 1 0.3125 0.40625 0.341849
935 1 0.270833 0.40625 0.379833
951 1 0.291667 0.4375 0.303866
955 1 0.25 0.4375 0.341849
958 1 0.3125 0.46875 0.341849
959 1 0.270833 0.46875 0.379833
975 1 0.291667 0.5 0.303866
979 1 0.25 0.5 0.341849
930 1 0.354167 0.40625 0.303866
932 1 0.333333 0.375 0.379833
954 1 0.354167 0.46875 0.303866
956 1 0.333333 0.4375 0.379833
980 1 0.333333 0.5 0.379833
1311 1 0.416667 0.375 0.303866
1314 1 0.479167 0.40625 0.303866
1315 1 0.375 0.375 0.341849
1316 1 0.458333 0.375 0.379833
1318 1 0.4375 0.40625 0.341849
1319 1 0.395833 0.40625 0.379833
1335 1 0.416667 0.4375 0.303866
1338 1 0.479167 0.46875 0.303866
1339 1 0.375 0.4375 0.341849
1340 1 0.458333 0.4375 0.379833
1342 1 0.4375 0.46875 0.341849
1343 1 0.395833 0.46875 0.379833
1359 1 0.416667 0.5 0.303866
1363 1 0.375 0.5 0.341849
1364 1 0.458333 0.5 0.379833
21 1 0.0416667 0 0.417816
24 1 0.104167 0.03125 0.417816
45 1 0.0416667 0.0625 0.417816
48 1 0.104167 0.09375 0.417816
69 1 0.0416667 0.125 0.417816
405 1 0.166667 0 0.417816
429 1 0.166667 0.0625 0.417816
453 1 0.166667 0.125 0.417816
408 1 0.229167 0.03125 0.417816
432 1 0.229167 0.09375 0.417816
789 1 0.291667 0 0.417816
813 1 0.291667 0.0625 0.417816
837 1 0.291667 0.125 0.417816
792 1 0.354167 0.03125 0.417816
816 1 0.354167 0.09375 0.417816
1173 1 0.416667 0 0.417816
1176 1 0.479167 0.03125 0.417816
1197 1 0.416667 0.0625 0.417816
1200 1 0.479167 0.09375 0.417816
1221 1 0.416667 0.125 0.417816
72 1 0.104167 0.15625 0.417816
93 1 0.0416667 0.1875 0.417816
96 1 0.104167 0.21875 0.417816
117 1 0.0416667 0.25 0.417816
477 1 0.166667 0.1875 0.417816
501 1 0.166667 0.25 0.417816
456 1 0.229167 0.15625 0.417816
480 1 0.229167 0.21875 0.417816
861 1 0.291667 0.1875 0.417816
885 1 0.291667 0.25 0.417816
840 1 0.354167 0.15625 0.417816
864 1 0.354167 0.21875 0.417816
1224 1 0.479167 0.15625 0.417816
1245 1 0.416667 0.1875 0.417816
1248 1 0.479167 0.21875 0.417816
1269 1 0.416667 0.25 0.417816
120 1 0.104167 0.28125 0.417816
141 1 0.0416667 0.3125 0.417816
144 1 0.104167 0.34375 0.417816
525 1 0.166667 0.3125 0.417816
504 1 0.229167 0.28125 0.417816
528 1 0.229167 0.34375 0.417816
909 1 0.291667 0.3125 0.417816
888 1 0.354167 0.28125 0.417816
912 1 0.354167 0.34375 0.417816
1272 1 0.479167 0.28125 0.417816
1293 1 0.416667 0.3125 0.417816
1296 1 0.479167 0.34375 0.417816
165 1 0.0416667 0.375 0.417816
168 1 0.104167 0.40625 0.417816
189 1 0.0416667 0.4375 0.417816
192 1 0.104167 0.46875 0.417816
213 1 0.0416667 0.5 0.417816
549 1 0.166667 0.375 0.417816
573 1 0.166667 0.4375 0.417816
597 1 0.166667 0.5 0.417816
552 1 0.229167 0.40625 0.417816
576 1 0.229167 0.46875 0.417816
933 1 0.291667 0.375 0.417816
957 1 0.291667 0.4375 0.417816
981 1 0.291667 0.5 0.417816
936 1 0.354167 0.40625 0.417816
960 1 0.354167 0.46875 0.417816
1317 1 0.416667 0.375 0.417816
1320 1 0.479167 0.40625 0.417816
1341 1 0.416667 0.4375 0.417816
1344 1 0.479167 0.46875 0.417816
1365 1 0.416667 0.5 0.417816
196 1 0.0625 0.53125 0
197 1 0.0208333 0.53125 0.0379833
198 1 0.104167 0.53125 0.0759665
217 1 0 0.5625 0
218 1 0.0833333 0.5625 0.0379833
219 1 0.0416667 0.5625 0.0759665
220 1 0.0625 0.59375 0
221 1 0.0208333 0.59375 0.0379833
222 1 0.104167 0.59375 0.0759665
241 1 0 0.625 0
242 1 0.0833333 0.625 0.0379833
243 1 0.0416667 0.625 0.0759665
581 1 0.145833 0.53125 0.0379833
601 1 0.125 0.5625 0
603 1 0.166667 0.5625 0.0759665
605 1 0.145833 0.59375 0.0379833
625 1 0.125 0.625 0
627 1 0.166667 0.625 0.0759665
580 1 0.1875 0.53125 0
582 1 0.229167 0.53125 0.0759665
602 1 0.208333 0.5625 0.0379833
604 1 0.1875 0.59375 0
606 1 0.229167 0.59375 0.0759665
626 1 0.208333 0.625 0.0379833
964 1 0.3125 0.53125 0
965 1 0.270833 0.53125 0.0379833
985 1 0.25 0.5625 0
987 1 0.291667 0.5625 0.0759665
988 1 0.3125 0.59375 0
989 1 0.270833 0.59375 0.0379833
1009 1 0.25 0.625 0
1011 1 0.291667 0.625 0.0759665
966 1 0.354167 0.53125 0.0759665
986 1 0.333333 0.5625 0.0379833
990 1 0.354167 0.59375 0.0759665
1010 1 0.333333 0.625 0.0379833
1348 1 0.4375 0.53125 0
1349 1 0.395833 0.53125 0.0379833
1350 1 0.479167 0.53125 0.0759665
1369 1 0.375 0.5625 0
1370 1 0.458333 0.5625 0.0379833
1371 1 0.416667 0.5625 0.0759665
1372 1 0.4375 0.59375 0
1373 1 0.395833 0.59375 0.0379833
1374 1 0.479167 0.59375 0.0759665
1393 1 0.375 0.625 0
1394 1 0.458333 0.625 0.0379833
1395 1 0.416667 0.625 0.0759665
244 1 0.0625 0.65625 0
245 1 0.0208333 0.65625 0.0379833
246 1 0.104167 0.65625 0.0759665
265 1 0 0.6875 0
266 1 0.0833333 0.6875 0.0379833
267 1 0.0416667 0.6875 0.0759665
268 1 0.0625 0.71875 0
269 1 0.0208333 0.71875 0.0379833
270 1 0.104167 0.71875 0.0759665
629 1 0.145833 0.65625 0.0379833
649 1 0.125 0.6875 0
651 1 0.166667 0.6875 0.0759665
653 1 0.145833 0.71875 0.0379833
628 1 0.1875 0.65625 0
630 1 0.229167 0.65625 0.0759665
650 1 0.208333 0.6875 0.0379833
652 1 0.1875 0.71875 0
654 1 0.229167 0.71875 0.0759665
1012 1 0.3125 0.65625 0
1013 1 0.270833 0.65625 0.0379833
1033 1 0.25 0.6875 0
1035 1 0.291667 0.6875 0.0759665
1036 1 0.3125 0.71875 0
1037 1 0.270833 0.71875 0.0379833
1014 1 0.354167 0.65625 0.0759665
1034 1 0.333333 0.6875 0.0379833
1038 1 0.354167 0.71875 0.0759665
1396 1 0.4375 0.65625 0
1397 1 0.395833 0.65625 0.0379833
1398 1 0.479167 0.65625 0.0759665
1417 1 0.375 0.6875 0
1418 1 0.458333 0.6875 0.0379833
1419 1 0.416667 0.6875 0.0759665
1420 1 0.4375 0.71875 0
1421 1 0.395833 0.71875 0.0379833
1422 1 0.479167 0.71875 0.0759665
289 1 0 0.75 0
290 1 0.0833333 0.75 0.0379833
291 1 0.0416667 0.75 0.0759665
292 1 0.0625 0.78125 0
293 1 0.0208333 0.78125 0.0379833
294 1 0.104167 0.78125 0.0759665
313 1 0 0.8125 0
314 1 0.0833333 0.8125 0.0379833
315 1 0.0416667 0.8125 0.0759665
316 1 0.0625 0.84375 0
317 1 0.0208333 0.84375 0.0379833
318 1 0.104167 0.84375 0.0759665
673 1 0.125 0.75 0
675 1 0.166667 0.75 0.0759665
677 1 0.145833 0.78125 0.0379833
697 1 0.125 0.8125 0
699 1 0.166667 0.8125 0.0759665
701 1 0.145833 0.84375 0.0379833
674 1 0.208333 0.75 0.0379833
676 1 0.1875 0.78125 0
678 1 0.229167 0.78125 0.0759665
698 1 0.208333 0.8125 0.0379833
700 1 0.1875 0.84375 0
702 1 0.229167 0.84375 0.0759665
1057 1 0.25 0.75 0
1059 1 0.291667 0.75 0.0759665
1060 1 0.3125 0.78125 0
1061 1 0.270833 0.78125 0.0379833
1081 1 0.25 0.8125 0
1083 1 0.291667 0.8125 0.0759665
1084 1 0.3125 0.84375 0
1085 1 0.270833 0.84375 0.0379833
1058 1 0.333333 0.75 0.0379833
1062 1 0.354167 0.78125 0.0759665
1082 1 0.333333 0.8125 0.0379833
1086 1 0.354167 0.84375 0.0759665
1441 1 0.375 0.75 0
1442 1 0.458333 0.75 0.0379833
1443 1 0.416667 0.75 0.0759665
1444 1 0.4375 0.78125 0
1445 1 0.395833 0.78125 0.0379833
1446 1 0.479167 0.78125 0.0759665
1465 1 0.375 0.8125 0
1466 1 0.458333 0.8125 0.0379833
1467 1 0.416667 0.8125 0.0759665
1468 1 0.4375 0.84375 0
1469 1 0.395833 0.84375 0.0379833
1470 1 0.479167 0.84375 0.0759665
337 1 0 0.875 0
338 1 0.0833333 0.875 0.0379833
339 1 0.0416667 0.875 0.0759665
340 1 0.0625 0.90625 0
341 1 0.0208333 0.90625 0.0379833
342 1 0.104167 0.90625 0.0759665
361 1 0 0.9375 0
362 1 0.0833333 0.9375 0.0379833
363 1 0.0416667 0.9375 0.0759665
364 1 0.0625 0.96875 0
365 1 0.0208333 0.96875 0.0379833
366 1 0.104167 0.96875 0.0759665
721 1 0.125 0.875 0
723 1 0.166667 0.875 0.0759665
725 1 0.145833 0.90625 0.0379833
745 1 0.125 0.9375 0
747 1 0.166667 0.9375 0.0759665
749 1 0.145833 0.96875 0.0379833
722 1 0.208333 0.875 0.0379833
724 1 0.1875 0.90625 0
726 1 0.229167 0.90625 0.0759665
746 1 0.208333 0.9375 0.0379833
748 1 0.1875 0.96875 0
750 1 0.229167 0.96875 0.0759665
1105 1 0.25 0.875 0
1107 1 0.291667 0.875 0.0759665
1108 1 0.3125 0.90625 0
1109 1 0.270833 0.90625 0.0379833
1129 1 0.25 0.9375 0
1131 1 0.291667 0.9375 0.0759665
1132 1 0.3125 0.96875 0
1133 1 0.270833 0.96875 0.0379833
1106 1 0.333333 0.875 0.0379833
1110 1 0.354167 0.90625 0.0759665
1130 1 0.333333 0.9375 0.0379833
1134 1 0.354167 0.96875 0.0759665
1489 1 0.375 0.875 0
1490 1 0.458333 0.875 0.0379833
1491 1 0.416667 0.875 0.0759665
1492 1 0.4375 0.90625 0
1493 1 0.395833 0.90625 0.0379833
1494 1 0.479167 0.90625 0.0759665
1513 1 0.375 0.9375 0
1514 1 0.458333 0.9375 0.0379833
1515 1 0.416667 0.9375 0.0759665
1516 1 0.4375 0.96875 0
1517 1 0.395833 0.96875 0.0379833
1518 1 0.479167 0.96875 0.0759665
202 1 0.0625 0.53125 0.11395
203 1 0.0208333 0.53125 0.151933
204 1 0.104167 0.53125 0.189916
223 1 0 0.5625 0.11395
224 1 0.0833333 0.5625 0.151933
225 1 0.0416667 0.5625 0.189916
226 1 0.0625 0.59375 0.11395
227 1 0.0208333 0.59375 0.151933
228 1 0.104167 0.59375 0.189916
247 1 0 0.625 0.11395
248 1 0.0833333 0.625 0.151933
249 1 0.0416667 0.625 0.189916
587 1 0.145833 0.53125 0.151933
607 1 0.125 0.5625 0.11395
609 1 0.166667 0.5625 0.189916
611 1 0.145833 0.59375 0.151933
631 1 0.125 0.625 0.11395
633 1 0.166667 0.625 0.189916
586 1 0.1875 0.53125 0.11395
588 1 0.229167 0.53125 0.189916