3072
 Atoms. Timestep: 0
Pt 0 0 0
Pt 3.22299 0 2.279
Pt 1.61149 0 4.55799
Pt 2.41724 1.39559 0
Pt 0.805747 1.39559 2.279
Pt 4.02873 1.39559 4.55799
Pt 0 0 6.83699
Pt 3.22299 0 9.11598
Pt 1.61149 0 11.395
Pt 2.41724 1.39559 6.83699
Pt 0.805747 1.39559 9.11598
Pt 4.02873 1.39559 11.395
Pt 0 0 13.674
Pt 3.22299 0 15.953
Pt 1.61149 0 18.232
Pt 2.41724 1.39559 13.674
Pt 0.805747 1.39559 15.953
Pt 4.02873 1.39559 18.232
Pt 0 0 20.511
Pt 3.22299 0 22.79
Pt 1.61149 0 25.069
Pt 2.41724 1.39559 20.511
Pt 0.805747 1.39559 22.79
Pt 4.02873 1.39559 25.069
Pt 0 2.79119 0
Pt 3.22299 2.79119 2.279
Pt 1.61149 2.79119 4.55799
Pt 2.41724 4.18678 0
Pt 0.805747 4.18678 2.279
Pt 4.02873 4.18678 4.55799
Pt 0 2.79119 6.83699
Pt 3.22299 2.79119 9.11598
Pt 1.61149 2.79119 11.395
Pt 2.41724 4.18678 6.83699
Pt 0.805747 4.18678 9.11598
Pt 4.02873 4.18678 11.395
Pt 0 2.79119 13.674
Pt 3.22299 2.79119 15.953
Pt 1.61149 2.79119 18.232
Pt 2.41724 4.18678 13.674
Pt 0.805747 4.18678 15.953
Pt 4.02873 4.18678 18.232
Pt 0 2.79119 20.511
Pt 3.22299 2.79119 22.79
Pt 1.61149 2.79119 25.069
Pt 2.41724 4.18678 20.511
Pt 0.805747 4.18678 22.79
Pt 4.02873 4.18678 25.069
Pt 0 5.58238 0
Pt 3.22299 5.58238 2.279
Pt 1.61149 5.58238 4.55799
Pt 2.41724 6.97797 0
Pt 0.805747 6.97797 2.279
Pt 4.02873 6.97797 4.55799
Pt 0 5.58238 6.83699
Pt 3.22299 5.58238 9.11598
Pt 1.61149 5.58238 11.395
Pt 2.41724 6.97797 6.83699
Pt 0.805747 6.97797 9.11598
Pt 4.02873 6.97797 11.395
Pt 0 5.58238 13.674
Pt 3.22299 5.58238 15.953
Pt 1.61149 5.58238 18.232
Pt 2.41724 6.97797 13.674
Pt 0.805747 6.97797 15.953
Pt 4.02873 6.97797 18.232
Pt 0 5.58238 20.511
Pt 3.22299 5.58238 22.79
Pt 1.61149 5.58238 25.069
Pt 2.41724 6.97797 20.511
Pt 0.805747 6.97797 22.79
Pt 4.02873 6.97797 25.069
Pt 0 8.37356 0
Pt 3.22299 8.37356 2.279
Pt 1.61149 8.37356 4.55799
Pt 2.41724 9.76916 0
Pt 0.805747 9.76916 2.279
Pt 4.02873 9.76916 4.55799
Pt 0 8.37356 6.83699
Pt 3.22299 8.37356 9.11598
Pt 1.61149 8.37356 11.395
Pt 2.41724 9.76916 6.83699
Pt 0.805747 9.76916 9.11598
Pt 4.02873 9.76916 11.395
Pt 0 8.37356 13.674
Pt 3.22299 8.37356 15.953
Pt 1.61149 8.37356 18.232
Pt 2.41724 9.76916 13.674
Pt 0.805747 9.76916 15.953
Pt 4.02873 9.76916 18.232
Pt 0 8.37356 20.511
Pt 3.22299 8.37356 22.79
Pt 1.61149 8.37356 25.069
Pt 2.41724 9.76916 20.511
Pt 0.805747 9.76916 22.79
Pt 4.02873 9.76916 25.069
Pt 0 11.1648 0
Pt 3.22299 11.1648 2.279
Pt 1.61149 11.1648 4.55799
Pt 2.41724 12.5603 0
Pt 0.805747 12.5603 2.279
Pt 4.02873 12.5603 4.55799
Pt 0 11.1648 6.83699
Pt 3.22299 11.1648 9.11598
Pt 1.61149 11.1648 11.395
Pt 2.41724 12.5603 6.83699
Pt 0.805747 12.5603 9.11598
Pt 4.02873 12.5603 11.395
Pt 0 11.1648 13.674
Pt 3.22299 11.1648 15.953
Pt 1.61149 11.1648 18.232
Pt 2.41724 12.5603 13.674
Pt 0.805747 12.5603 15.953
Pt 4.02873 12.5603 18.232
Pt 0 11.1648 20.511
Pt 3.22299 11.1648 22.79
Pt 1.61149 11.1648 25.069
Pt 2.41724 12.5603 20.511
Pt 0.805747 12.5603 22.79
Pt 4.02873 12.5603 25.069
Pt 0 13.9559 0
Pt 3.22299 13.9559 2.279
Pt 1.61149 13.9559 4.55799
Pt 2.41724 15.3515 0
Pt 0.805747 15.3515 2.279
Pt 4.02873 15.3515 4.55799
Pt 0 13.9559 6.83699
Pt 3.22299 13.9559 9.11598
Pt 1.61149 13.9559 11.395
Pt 2.41724 15.3515 6.83699
Pt 0.805747 15.3515 9.11598
Pt 4.02873 15.3515 11.395
Pt 0 13.9559 13.674
Pt 3.22299 13.9559 15.953
Pt 1.61149 13.9559 18.232
Pt 2.41724 15.3515 13.674
Pt 0.805747 15.3515 15.953
Pt 4.02873 15.3515 18.232
Pt 0 13.9559 20.511
Pt 3.22299 13.9559 22.79
Pt 1.61149 13.9559 25.069
Pt 2.41724 15.3515 20.511
Pt 0.805747 15.3515 22.79
Pt 4.02873 15.3515 25.069
Pt 0 16.7471 0
Pt 3.22299 16.7471 2.279
Pt 1.61149 16.7471 4.55799
Pt 2.41724 18.1427 0
Pt 0.805747 18.1427 2.279
Pt 4.02873 18.1427 4.55799
Pt 0 16.7471 6.83699
Pt 3.22299 16.7471 9.11598
Pt 1.61149 16.7471 11.395
Pt 2.41724 18.1427 6.83699
Pt 0.805747 18.1427 9.11598
Pt 4.02873 18.1427 11.395
Pt 0 16.7471 13.674
Pt 3.22299 16.7471 15.953
Pt 1.61149 16.7471 18.232
Pt 2.41724 18.1427 13.674
Pt 0.805747 18.1427 15.953
Pt 4.02873 18.1427 18.232
Pt 0 16.7471 20.511
Pt 3.22299 16.7471 22.79
Pt 1.61149 16.7471 25.069
Pt 2.41724 18.1427 20.511
Pt 0.805747 18.1427 22.79
Pt 4.02873 18.1427 25.069
Pt 0 19.5383 0
Pt 3.22299 19.5383 2.279
Pt 1.61149 19.5383 4.55799
Pt 2.41724 20.9339 0
Pt 0.805747 20.9339 2.279
Pt 4.02873 20.9339 4.55799
Pt 0 19.5383 6.83699
Pt 3.22299 19.5383 9.11598
Pt 1.61149 19.5383 11.395
Pt 2.41724 20.9339 6.83699
Pt 0.805747 20.9339 9.11598
Pt 4.02873 20.9339 11.395
Pt 0 19.5383 13.674
Pt 3.22299 19.5383 15.953
Pt 1.61149 19.5383 18.232
Pt 2.41724 20.9339 13.674
Pt 0.805747 20.9339 15.953
Pt 4.02873 20.9339 18.232
Pt 0 19.5383 20.511
Pt 3.22299 19.5383 22.79
Pt 1.61149 19.5383 25.069
Pt 2.41724 20.9339 20.511
Pt 0.805747 20.9339 22.79
Pt 4.02873 20.9339 25.069
Pt 0 22.3295 0
Pt 3.22299 22.3295 2.279
Pt 1.61149 22.3295 4.55799
Pt 2.41724 23.7251 0
Pt 0.805747 23.7251 2.279
Pt 4.02873 23.7251 4.55799
Pt 0 22.3295 6.83699
Pt 3.22299 22.3295 9.11598
Pt 1.61149 22.3295 11.395
Pt 2.41724 23.7251 6.83699
Pt 0.805747 23.7251 9.11598
Pt 4.02873 23.7251 11.395
Pt 0 22.3295 13.674
Pt 3.22299 22.3295 15.953
Pt 1.61149 22.3295 18.232
Pt 2.41724 23.7251 13.674
Pt 0.805747 23.7251 15.953
Pt 4.02873 23.7251 18.232
Pt 0 22.3295 20.511
Pt 3.22299 22.3295 22.79
Pt 1.61149 22.3295 25.069
Pt 2.41724 23.7251 20.511
Pt 0.805747 23.7251 22.79
Pt 4.02873 23.7251 25.069
Pt 0 25.1207 0
Pt 3.22299 25.1207 2.279
Pt 1.61149 25.1207 4.55799
Pt 2.41724 26.5163 0
Pt 0.805747 26.5163 2.279
Pt 4.02873 26.5163 4.55799
Pt 0 25.1207 6.83699
Pt 3.22299 25.1207 9.11598
Pt 1.61149 25.1207 11.395
Pt 2.41724 26.5163 6.83699
Pt 0.805747 26.5163 9.11598
Pt 4.02873 26.5163 11.395
Pt 0 25.1207 13.674
Pt 3.22299 25.1207 15.953
Pt 1.61149 25.1207 18.232
Pt 2.41724 26.5163 13.674
Pt 0.805747 26.5163 15.953
Pt 4.02873 26.5163 18.232
Pt 0 25.1207 20.511
Pt 3.22299 25.1207 22.79
Pt 1.61149 25.1207 25.069
Pt 2.41724 26.5163 20.511
Pt 0.805747 26.5163 22.79
Pt 4.02873 26.5163 25.069
Pt 0 27.9119 0
Pt 3.22299 27.9119 2.279
Pt 1.61149 27.9119 4.55799
Pt 2.41724 29.3075 0
Pt 0.805747 29.3075 2.279
Pt 4.02873 29.3075 4.55799
Pt 0 27.9119 6.83699
Pt 3.22299 27.9119 9.11598
Pt 1.61149 27.9119 11.395
Pt 2.41724 29.3075 6.83699
Pt 0.805747 29.3075 9.11598
Pt 4.02873 29.3075 11.395
Pt 0 27.9119 13.674
Pt 3.22299 27.9119 15.953
Pt 1.61149 27.9119 18.232
Pt 2.41724 29.3075 13.674
Pt 0.805747 29.3075 15.953
Pt 4.02873 29.3075 18.232
Pt 0 27.9119 20.511
Pt 3.22299 27.9119 22.79
Pt 1.61149 27.9119 25.069
Pt 2.41724 29.3075 20.511
Pt 0.805747 29.3075 22.79
Pt 4.02873 29.3075 25.069
Pt 0 30.7031 0
Pt 3.22299 30.7031 2.279
Pt 1.61149 30.7031 4.55799
Pt 2.41724 32.0987 0
Pt 0.805747 32.0987 2.279
Pt 4.02873 32.0987 4.55799
Pt 0 30.7031 6.83699
Pt 3.22299 30.7031 9.11598
Pt 1.61149 30.7031 11.395
Pt 2.41724 32.0987 6.83699
Pt 0.805747 32.0987 9.11598
Pt 4.02873 32.0987 11.395
Pt 0 30.7031 13.674
Pt 3.22299 30.7031 15.953
Pt 1.61149 30.7031 18.232
Pt 2.41724 32.0987 13.674
Pt 0.805747 32.0987 15.953
Pt 4.02873 32.0987 18.232
Pt 0 30.7031 20.511
Pt 3.22299 30.7031 22.79
Pt 1.61149 30.7031 25.069
Pt 2.41724 32.0987 20.511
Pt 0.805747 32.0987 22.79
Pt 4.02873 32.0987 25.069
Pt 0 33.4943 0
Pt 3.22299 33.4943 2.279
Pt 1.61149 33.4943 4.55799
Pt 2.41724 34.8899 0
Pt 0.805747 34.8899 2.279
Pt 4.02873 34.8899 4.55799
Pt 0 33.4943 6.83699
Pt 3.22299 33.4943 9.11598
Pt 1.61149 33.4943 11.395
Pt 2.41724 34.8899 6.83699
Pt 0.805747 34.8899 9.11598
Pt 4.02873 34.8899 11.395
Pt 0 33.4943 13.674
Pt 3.22299 33.4943 15.953
Pt 1.61149 33.4943 18.232
Pt 2.41724 34.8899 13.674
Pt 0.805747 34.8899 15.953
Pt 4.02873 34.8899 18.232
Pt 0 33.4943 20.511
Pt 3.22299 33.4943 22.79
Pt 1.61149 33.4943 25.069
Pt 2.41724 34.8899 20.511
Pt 0.805747 34.8899 22.79
Pt 4.02873 34.8899 25.069
Pt 0 36.2854 0
Pt 3.22299 36.2854 2.279
Pt 1.61149 36.2854 4.55799
Pt 2.41724 37.681 0
Pt 0.805747 37.681 2.279
Pt 4.02873 37.681 4.55799
Pt 0 36.2854 6.83699
Pt 3.22299 36.2854 9.11598
Pt 1.61149 36.2854 11.395
Pt 2.41724 37.681 6.83699
Pt 0.805747 37.681 9.11598
Pt 4.02873 37.681 11.395
Pt 0 36.2854 13.674
Pt 3.22299 36.2854 15.953
Pt 1.61149 36.2854 18.232
Pt 2.41724 37.681 13.674
Pt 0.805747 37.681 15.953
Pt 4.02873 37.681 18.232
Pt 0 36.2854 20.511
Pt 3.22299 36.2854 22.79
Pt 1.61149 36.2854 25.069
Pt 2.41724 37.681 20.511
Pt 0.805747 37.681 22.79
Pt 4.02873 37.681 25.069
Pt 0 39.0766 0
Pt 3.22299 39.0766 2.279
Pt 1.61149 39.0766 4.55799
Pt 2.41724 40.4722 0
Pt 0.805747 40.4722 2.279
Pt 4.02873 40.4722 4.55799
Pt 0 39.0766 6.83699
Pt 3.22299 39.0766 9.11598
Pt 1.61149 39.0766 11.395
Pt 2.41724 40.4722 6.83699
Pt 0.805747 40.4722 9.11598
Pt 4.02873 40.4722 11.395
Pt 0 39.0766 13.674
Pt 3.22299 39.0766 15.953
Pt 1.61149 39.0766 18.232
Pt 2.41724 40.4722 13.674
Pt 0.805747 40.4722 15.953
Pt 4.02873 40.4722 18.232
Pt 0 39.0766 20.511
Pt 3.22299 39.0766 22.79
Pt 1.61149 39.0766 25.069
Pt 2.41724 40.4722 20.511
Pt 0.805747 40.4722 22.79
Pt 4.02873 40.4722 25.069
Pt 0 41.8678 0
Pt 3.22299 41.8678 2.279
Pt 1.61149 41.8678 4.55799
Pt 2.41724 43.2634 0
Pt 0.805747 43.2634 2.279
Pt 4.02873 43.2634 4.55799
Pt 0 41.8678 6.83699
Pt 3.22299 41.8678 9.11598
Pt 1.61149 41.8678 11.395
Pt 2.41724 43.2634 6.83699
Pt 0.805747 43.2634 9.11598
Pt 4.02873 43.2634 11.395
Pt 0 41.8678 13.674
Pt 3.22299 41.8678 15.953
Pt 1.61149 41.8678 18.232
Pt 2.41724 43.2634 13.674
Pt 0.805747 43.2634 15.953
Pt 4.02873 43.2634 18.232
Pt 0 41.8678 20.511
Pt 3.22299 41.8678 22.79
Pt 1.61149 41.8678 25.069
Pt 2.41724 43.2634 20.511
Pt 0.805747 43.2634 22.79
Pt 4.02873 43.2634 25.069
Pt 4.83448 0 0
Pt 8.05747 0 2.279
Pt 6.44597 0 4.55799
Pt 7.25172 1.39559 0
Pt 5.64023 1.39559 2.279
Pt 8.86321 1.39559 4.55799
Pt 4.83448 0 6.83699
Pt 8.05747 0 9.11598
Pt 6.44597 0 11.395
Pt 7.25172 1.39559 6.83699
Pt 5.64023 1.39559 9.11598
Pt 8.86321 1.39559 11.395
Pt 4.83448 0 13.674
Pt 8.05747 0 15.953
Pt 6.44597 0 18.232
Pt 7.25172 1.39559 13.674
Pt 5.64023 1.39559 15.953
Pt 8.86321 1.39559 18.232
Pt 4.83448 0 20.511
Pt 8.05747 0 22.79
Pt 6.44597 0 25.069
Pt 7.25172 1.39559 20.511
Pt 5.64023 1.39559 22.79
Pt 8.86321 1.39559 25.069
Pt 4.83448 2.79119 0
Pt 8.05747 2.79119 2.279
Pt 6.44597 2.79119 4.55799
Pt 7.25172 4.18678 0
Pt 5.64023 4.18678 2.279
Pt 8.86321 4.18678 4.55799
Pt 4.83448 2.79119 6.83699
Pt 8.05747 2.79119 9.11598
Pt 6.44597 2.79119 11.395
Pt 7.25172 4.18678 6.83699
Pt 5.64023 4.18678 9.11598
Pt 8.86321 4.18678 11.395
Pt 4.83448 2.79119 13.674
Pt 8.05747 2.79119 15.953
Pt 6.44597 2.79119 18.232
Pt 7.25172 4.18678 13.674
Pt 5.64023 4.18678 15.953
Pt 8.86321 4.18678 18.232
Pt 4.83448 2.79119 20.511
Pt 8.05747 2.79119 22.79
Pt 6.44597 2.79119 25.069
Pt 7.25172 4.18678 20.511
Pt 5.64023 4.18678 22.79
Pt 8.86321 4.18678 25.069
Pt 4.83448 5.58238 0
Pt 8.05747 5.58238 2.279
Pt 6.44597 5.58238 4.55799
Pt 7.25172 6.97797 0
Pt 5.64023 6.97797 2.279
Pt 8.86321 6.97797 4.55799
Pt 4.83448 5.58238 6.83699
Pt 8.05747 5.58238 9.11598
Pt 6.44597 5.58238 11.395
Pt 7.25172 6.97797 6.83699
Pt 5.64023 6.97797 9.11598
Pt 8.86321 6.97797 11.395
Pt 4.83448 5.58238 13.674
Pt 8.05747 5.58238 15.953
Pt 6.44597 5.58238 18.232
Pt 7.25172 6.97797 13.674
Pt 5.64023 6.97797 15.953
Pt 8.86321 6.97797 18.232
Pt 4.83448 5.58238 20.511
Pt 8.05747 5.58238 22.79
Pt 6.44597 5.58238 25.069
Pt 7.25172 6.97797 20.511
Pt 5.64023 6.97797 22.79
Pt 8.86321 6.97797 25.069
Pt 4.83448 8.37356 0
Pt 8.05747 8.37356 2.279
Pt 6.44597 8.37356 4.55799
Pt 7.25172 9.76916 0
Pt 5.64023 9.76916 2.279
Pt 8.86321 9.76916 4.55799
Pt 4.83448 8.37356 6.83699
Pt 8.05747 8.37356 9.11598
Pt 6.44597 8.37356 11.395
Pt 7.25172 9.76916 6.83699
Pt 5.64023 9.76916 9.11598
Pt 8.86321 9.76916 11.395
Pt 4.83448 8.37356 13.674
Pt 8.05747 8.37356 15.953
Pt 6.44597 8.37356 18.232
Pt 7.25172 9.76916 13.674
Pt 5.64023 9.76916 15.953
Pt 8.86321 9.76916 18.232
Pt 4.83448 8.37356 20.511
Pt 8.05747 8.37356 22.79
Pt 6.44597 8.37356 25.069
Pt 7.25172 9.76916 20.511
Pt 5.64023 9.76916 22.79
Pt 8.86321 9.76916 25.069
Pt 4.83448 11.1648 0
Pt 8.05747 11.1648 2.279
Pt 6.44597 11.1648 4.55799
Pt 7.25172 12.5603 0
Pt 5.64023 12.5603 2.279
Pt 8.86321 12.5603 4.55799
Pt 4.83448 11.1648 6.83699
Pt 8.05747 11.1648 9.11598
Pt 6.44597 11.1648 11.395
Pt 7.25172 12.5603 6.83699
Pt 5.64023 12.5603 9.11598
Pt 8.86321 12.5603 11.395
Pt 4.83448 11.1648 13.674
Pt 8.05747 11.1648 15.953
Pt 6.44597 11.1648 18.232
Pt 7.25172 12.5603 13.674
Pt 5.64023 12.5603 15.953
Pt 8.86321 12.5603 18.232
Pt 4.83448 11.1648 20.511
Pt 8.05747 11.1648 22.79
Pt 6.44597 11.1648 25.069
Pt 7.25172 12.5603 20.511
Pt 5.64023 12.5603 22.79
Pt 8.86321 12.5603 25.069
Pt 4.83448 13.9559 0
Pt 8.05747 13.9559 2.279
Pt 6.44597 13.9559 4.55799
Pt 7.25172 15.3515 0
Pt 5.64023 15.3515 2.279
Pt 8.86321 15.3515 4.55799
Pt 4.83448 13.9559 6.83699
Pt 8.05747 13.9559 9.11598
Pt 6.44597 13.9559 11.395
Pt 7.25172 15.3515 6.83699
Pt 5.64023 15.3515 9.11598
Pt 8.86321 15.3515 11.395
Pt 4.83448 13.9559 13.674
Pt 8.05747 13.9559 15.953
Pt 6.44597 13.9559 18.232
Pt 7.25172 15.3515 13.674
Pt 5.64023 15.3515 15.953
Pt 8.86321 15.3515 18.232
Pt 4.83448 13.9559 20.511
Pt 8.05747 13.9559 22.79
Pt 6.44597 13.9559 25.069
Pt 7.25172 15.3515 20.511
Pt 5.64023 15.3515 22.79
Pt 8.86321 15.3515 25.069
Pt 4.83448 16.7471 0
Pt 8.05747 16.7471 2.279
Pt 6.44597 16.7471 4.55799
Pt 7.25172 18.1427 0
Pt 5.64023 18.1427 2.279
Pt 8.86321 18.1427 4.55799
Pt 4.83448 16.7471 6.83699
Pt 8.05747 16.7471 9.11598
Pt 6.44597 16.7471 11.395
Pt 7.25172 18.1427 6.83699
Pt 5.64023 18.1427 9.11598
Pt 8.86321 18.1427 11.395
Pt 4.83448 16.7471 13.674
Pt 8.05747 16.7471 15.953
Pt 6.44597 16.7471 18.232
Pt 7.25172 18.1427 13.674
Pt 5.64023 18.1427 15.953
Pt 8.86321 18.1427 18.232
Pt 4.83448 16.7471 20.511
Pt 8.05747 16.7471 22.79
Pt 6.44597 16.7471 25.069
Pt 7.25172 18.1427 20.511
Pt 5.64023 18.1427 22.79
Pt 8.86321 18.1427 25.069
Pt 4.83448 19.5383 0
Pt 8.05747 19.5383 2.279
Pt 6.44597 19.5383 4.55799
Pt 7.25172 20.9339 0
Pt 5.64023 20.9339 2.279
Pt 8.86321 20.9339 4.55799
Pt 4.83448 19.5383 6.83699
Pt 8.05747 19.5383 9.11598
Pt 6.44597 19.5383 11.395
Pt 7.25172 20.9339 6.83699
Pt 5.64023 20.9339 9.11598
Pt 8.86321 20.9339 11.395
Pt 4.83448 19.5383 13.674
Pt 8.05747 19.5383 15.953
Pt 6.44597 19.5383 18.232
Pt 7.25172 20.9339 13.674
Pt 5.64023 20.9339 15.953
Pt 8.86321 20.9339 18.232
Pt 4.83448 19.5383 20.511
Pt 8.05747 19.5383 22.79
Pt 6.44597 19.5383 25.069
Pt 7.25172 20.9339 20.511
Pt 5.64023 20.9339 22.79
Pt 8.86321 20.9339 25.069
Pt 4.83448 22.3295 0
Pt 8.05747 22.3295 2.279
Pt 6.44597 22.3295 4.55799
Pt 7.25172 23.7251 0
Pt 5.64023 23.7251 2.279
Pt 8.86321 23.7251 4.55799
Pt 4.83448 22.3295 6.83699
Pt 8.05747 22.3295 9.11598
Pt 6.44597 22.3295 11.395
Pt 7.25172 23.7251 6.83699
Pt 5.64023 23.7251 9.11598
Pt 8.86321 23.7251 11.395
Pt 4.83448 22.3295 13.674
Pt 8.05747 22.3295 15.953
Pt 6.44597 22.3295 18.232
Pt 7.25172 23.7251 13.674
Pt 5.64023 23.7251 15.953
Pt 8.86321 23.7251 18.232
Pt 4.83448 22.3295 20.511
Pt 8.05747 22.3295 22.79
Pt 6.44597 22.3295 25.069
Pt 7.25172 23.7251 20.511
Pt 5.64023 23.7251 22.79
Pt 8.86321 23.7251 25.069
Pt 4.83448 25.1207 0
Pt 8.05747 25.1207 2.279
Pt 6.44597 25.1207 4.55799
Pt 7.25172 26.5163 0
Pt 5.64023 26.5163 2.279
Pt 8.86321 26.5163 4.55799
Pt 4.83448 25.1207 6.83699
Pt 8.05747 25.1207 9.11598
Pt 6.44597 25.1207 11.395
Pt 7.25172 26.5163 6.83699
Pt 5.64023 26.5163 9.11598
Pt 8.86321 26.5163 11.395
Pt 4.83448 25.1207 13.674
Pt 8.05747 25.1207 15.953
Pt 6.44597 25.1207 18.232
Pt 7.25172 26.5163 13.674
Pt 5.64023 26.5163 15.953
Pt 8.86321 26.5163 18.232
Pt 4.83448 25.1207 20.511
Pt 8.05747 25.1207 22.79
Pt 6.44597 25.1207 25.069
Pt 7.25172 26.5163 20.511
Pt 5.64023 26.5163 22.79
Pt 8.86321 26.5163 25.069
Pt 4.83448 27.9119 0
Pt 8.05747 27.9119 2.279
Pt 6.44597 27.9119 4.55799
Pt 7.25172 29.3075 0
Pt 5.64023 29.3075 2.279
Pt 8.86321 29.3075 4.55799
Pt 4.83448 27.9119 6.83699
Pt 8.05747 27.9119 9.11598
Pt 6.44597 27.9119 11.395
Pt 7.25172 29.3075 6.83699
Pt 5.64023 29.3075 9.11598
Pt 8.86321 29.3075 11.395
Pt 4.83448 27.9119 13.674
Pt 8.05747 27.9119 15.953
Pt 6.44597 27.9119 18.232
Pt 7.25172 29.3075 13.674
Pt 5.64023 29.3075 15.953
Pt 8.86321 29.3075 18.232
Pt 4.83448 27.9119 20.511
Pt 8.05747 27.9119 22.79
Pt 6.44597 27.9119 25.069
Pt 7.25172 29.3075 20.511
Pt 5.64023 29.3075 22.79
Pt 8.86321 29.3075 25.069
Pt 4.83448 30.7031 0
Pt 8.05747 30.7031 2.279
Pt 6.44597 30.7031 4.55799
Pt 7.25172 32.0987 0
Pt 5.64023 32.0987 2.279
Pt 8.86321 32.0987 4.55799
Pt 4.83448 30.7031 6.83699
Pt 8.05747 30.7031 9.11598
Pt 6.44597 30.7031 11.395
Pt 7.25172 32.0987 6.83699
Pt 5.64023 32.0987 9.11598
Pt 8.86321 32.0987 11.395
Pt 4.83448 30.7031 13.674
Pt 8.05747 30.7031 15.953
Pt 6.44597 30.7031 18.232
Pt 7.25172 32.0987 13.674
Pt 5.64023 32.0987 15.953
Pt 8.86321 32.0987 18.232
Pt 4.83448 30.7031 20.511
Pt 8.05747 30.7031 22.79
Pt 6.44597 30.7031 25.069
Pt 7.25172 32.0987 20.511
Pt 5.64023 32.0987 22.79
Pt 8.86321 32.0987 25.069
Pt 4.83448 33.4943 0
Pt 8.05747 33.4943 2.279
Pt 6.44597 33.4943 4.55799
Pt 7.25172 34.8899 0
Pt 5.64023 34.8899 2.279
Pt 8.86321 34.8899 4.55799
Pt 4.83448 33.4943 6.83699
Pt 8.05747 33.4943 9.11598
Pt 6.44597 33.4943 11.395
Pt 7.25172 34.8899 6.83699
Pt 5.64023 34.8899 9.11598
Pt 8.86321 34.8899 11.395
Pt 4.83448 33.4943 13.674
Pt 8.05747 33.4943 15.953
Pt 6.44597 33.4943 18.232
Pt 7.25172 34.8899 13.674
Pt 5.64023 34.8899 15.953
Pt 8.86321 34.8899 18.232
Pt 4.83448 33.4943 20.511
Pt 8.05747 33.4943 22.79
Pt 6.44597 33.4943 25.069
Pt 7.25172 34.8899 20.511
Pt 5.64023 34.8899 22.79
Pt 8.86321 34.8899 25.069
Pt 4.83448 36.2854 0
Pt 8.05747 36.2854 2.279
Pt 6.44597 36.2854 4.55799
Pt 7.25172 37.681 0
Pt 5.64023 37.681 2.279
Pt 8.86321 37.681 4.55799
Pt 4.83448 36.2854 6.83699
Pt 8.05747 36.2854 9.11598
Pt 6.44597 36.2854 11.395
Pt 7.25172 37.681 6.83699
Pt 5.64023 37.681 9.11598
Pt 8.86321 37.681 11.395
Pt 4.83448 36.2854 13.674
Pt 8.05747 36.2854 15.953
Pt 6.44597 36.2854 18.232
Pt 7.25172 37.681 13.674
Pt 5.64023 37.681 15.953
Pt 8.86321 37.681 18.232
Pt 4.83448 36.2854 20.511
Pt 8.05747 36.2854 22.79
Pt 6.44597 36.2854 25.069
Pt 7.25172 37.681 20.511
Pt 5.64023 37.681 22.79
Pt 8.86321 37.681 25.069
Pt 4.83448 39.0766 0
Pt 8.05747 39.0766 2.279
Pt 6.44597 39.0766 4.55799
Pt 7.25172 40.4722 0
Pt 5.64023 40.4722 2.279
Pt 8.86321 40.4722 4.55799
Pt 4.83448 39.0766 6.83699
Pt 8.05747 39.0766 9.11598
Pt 6.44597 39.0766 11.395
Pt 7.25172 40.4722 6.83699
Pt 5.64023 40.4722 9.11598
Pt 8.86321 40.4722 11.395
Pt 4.83448 39.0766 13.674
Pt 8.05747 39.0766 15.953
Pt 6.44597 39.0766 18.232
Pt 7.25172 40.4722 13.674
Pt 5.64023 40.4722 15.953
Pt 8.86321 40.4722 18.232
Pt 4.83448 39.0766 20.511
Pt 8.05747 39.0766 22.79
Pt 6.44597 39.0766 25.069
Pt 7.25172 40.4722 20.511
Pt 5.64023 40.4722 22.79
Pt 8.86321 40.4722 25.069
Pt 4.83448 41.8678 0
Pt 8.05747 41.8678 2.279
Pt 6.44597 41.8678 4.55799
Pt 7.25172 43.2634 0
Pt 5.64023 43.2634 2.279
Pt 8.86321 43.2634 4.55799
Pt 4.83448 41.8678 6.83699
Pt 8.05747 41.8678 9.11598
Pt 6.44597 41.8678 11.395
Pt 7.25172 43.2634 6.83699
Pt 5.64023 43.2634 9.11598
Pt 8.86321 43.2634 11.395
Pt 4.83448 41.8678 13.674
Pt 8.05747 41.8678 15.953
Pt 6.44597 41.8678 18.232
Pt 7.25172 43.2634 13.674
Pt 5.64023 43.2634 15.953
Pt 8.86321 43.2634 18.232
Pt 4.83448 41.8678 20.511
Pt 8.05747 41.8678 22.79
Pt 6.44597 41.8678 25.069
Pt 7.25172 43.2634 20.511
Pt 5.64023 43.2634 22.79
Pt 8.86321 43.2634 25.069
Pt 9.66896 0 0
Pt 12.8919 0 2.279
Pt 11.2805 0 4.55799
Pt 12.0862 1.39559 0
Pt 10.4747 1.39559 2.279
Pt 13.6977 1.39559 4.55799
Pt 9.66896 0 6.83699
Pt 12.8919 0 9.11598
Pt 11.2805 0 11.395
Pt 12.0862 1.39559 6.83699
Pt 10.4747 1.39559 9.11598
Pt 13.6977 1.39559 11.395
Pt 9.66896 0 13.674
Pt 12.8919 0 15.953
Pt 11.2805 0 18.232
Pt 12.0862 1.39559 13.674
Pt 10.4747 1.39559 15.953
Pt 13.6977 1.39559 18.232
Pt 9.66896 0 20.511
Pt 12.8919 0 22.79
Pt 11.2805 0 25.069
Pt 12.0862 1.39559 20.511
Pt 10.4747 1.39559 22.79
Pt 13.6977 1.39559 25.069
Pt 9.66896 2.79119 0
Pt 12.8919 2.79119 2.279
Pt 11.2805 2.79119 4.55799
Pt 12.0862 4.18678 0
Pt 10.4747 4.18678 2.279
Pt 13.6977 4.18678 4.55799
Pt 9.66896 2.79119 6.83699
Pt 12.8919 2.79119 9.11598
Pt 11.2805 2.79119 11.395
Pt 12.0862 4.18678 6.83699
Pt 10.4747 4.18678 9.11598
Pt 13.6977 4.18678 11.395
Pt 9.66896 2.79119 13.674
Pt 12.8919 2.79119 15.953
Pt 11.2805 2.79119 18.232
Pt 12.0862 4.18678 13.674
Pt 10.4747 4.18678 15.953
Pt 13.6977 4.18678 18.232
Pt 9.66896 2.79119 20.511
Pt 12.8919 2.79119 22.79
Pt 11.2805 2.79119 25.069
Pt 12.0862 4.18678 20.511
Pt 10.4747 4.18678 22.79
Pt 13.6977 4.18678 25.069
Pt 9.66896 5.58238 0
Pt 12.8919 5.58238 2.279
Pt 11.2805 5.58238 4.55799
Pt 12.0862 6.97797 0
Pt 10.4747 6.97797 2.279
Pt 13.6977 6.97797 4.55799
Pt 9.66896 5.58238 6.83699
Pt 12.8919 5.58238 9.11598
Pt 11.2805 5.58238 11.395
Pt 12.0862 6.97797 6.83699
Pt 10.4747 6.97797 9.11598
Pt 13.6977 6.97797 11.395
Pt 9.66896 5.58238 13.674
Pt 12.8919 5.58238 15.953
Pt 11.2805 5.58238 18.232
Pt 12.0862 6.97797 13.674
Pt 10.4747 6.97797 15.953
Pt 13.6977 6.97797 18.232
Pt 9.66896 5.58238 20.511
Pt 12.8919 5.58238 22.79
Pt 11.2805 5.58238 25.069
Pt 12.0862 6.97797 20.511
Pt 10.4747 6.97797 22.79
Pt 13.6977 6.97797 25.069
Pt 9.66896 8.37356 0
Pt 12.8919 8.37356 2.279
Pt 11.2805 8.37356 4.55799
Pt 12.0862 9.76916 0
Pt 10.4747 9.76916 2.279
Pt 13.6977 9.76916 4.55799
Pt 9.66896 8.37356 6.83699
Pt 12.8919 8.37356 9.11598
Pt 11.2805 8.37356 11.395
Pt 12.0862 9.76916 6.83699
Pt 10.4747 9.76916 9.11598
Pt 13.6977 9.76916 11.395
Pt 9.66896 8.37356 13.674
Pt 12.8919 8.37356 15.953
Pt 11.2805 8.37356 18.232
Pt 12.0862 9.76916 13.674
Pt 10.4747 9.76916 15.953
Pt 13.6977 9.76916 18.232
Pt 9.66896 8.37356 20.511
Pt 12.8919 8.37356 22.79
Pt 11.2805 8.37356 25.069
Pt 12.0862 9.76916 20.511
Pt 10.4747 9.76916 22.79
Pt 13.6977 9.76916 25.069
Pt 9.66896 11.1648 0
Pt 12.8919 11.1648 2.279
Pt 11.2805 11.1648 4.55799
Pt 12.0862 12.5603 0
Pt 10.4747 12.5603 2.279
Pt 13.6977 12.5603 4.55799
Pt 9.66896 11.1648 6.83699
Pt 12.8919 11.1648 9.11598
Pt 11.2805 11.1648 11.395
Pt 12.0862 12.5603 6.83699
Pt 10.4747 12.5603 9.11598
Pt 13.6977 12.5603 11.395
Pt 9.66896 11.1648 13.674
Pt 12.8919 11.1648 15.953
Pt 11.2805 11.1648 18.232
Pt 12.0862 12.5603 13.674
Pt 10.4747 12.5603 15.953
Pt 13.6977 12.5603 18.232
Pt 9.66896 11.1648 20.511
Pt 12.8919 11.1648 22.79
Pt 11.2805 11.1648 25.069
Pt 12.0862 12.5603 20.511
Pt 10.4747 12.5603 22.79
Pt 13.6977 12.5603 25.069
Pt 9.66896 13.9559 0
Pt 12.8919 13.9559 2.279
Pt 11.2805 13.9559 4.55799
Pt 12.0862 15.3515 0
Pt 10.4747 15.3515 2.279
Pt 13.6977 15.3515 4.55799
Pt 9.66896 13.9559 6.83699
Pt 12.8919 13.9559 9.11598
Pt 11.2805 13.9559 11.395
Pt 12.0862 15.3515 6.83699
Pt 10.4747 15.3515 9.11598
Pt 13.6977 15.3515 11.395
Pt 9.66896 13.9559 13.674
Pt 12.8919 13.9559 15.953
Pt 11.2805 13.9559 18.232
Pt 12.0862 15.3515 13.674
Pt 10.4747 15.3515 15.953
Pt 13.6977 15.3515 18.232
Pt 9.66896 13.9559 20.511
Pt 12.8919 13.9559 22.79
Pt 11.2805 13.9559 25.069
Pt 12.0862 15.3515 20.511
Pt 10.4747 15.3515 22.79
Pt 13.6977 15.3515 25.069
Pt 9.66896 16.7471 0
Pt 12.8919 16.7471 2.279
Pt 11.2805 16.7471 4.55799
Pt 12.0862 18.1427 0
Pt 10.4747 18.1427 2.279
Pt 13.6977 18.1427 4.55799
Pt 9.66896 16.7471 6.83699
Pt 12.8919 16.7471 9.11598
Pt 11.2805 16.7471 11.395
Pt 12.0862 18.1427 6.83699
Pt 10.4747 18.1427 9.11598
Pt 13.6977 18.1427 11.395
Pt 9.66896 16.7471 13.674
Pt 12.8919 16.7471 15.953
Pt 11.2805 16.7471 18.232
Pt 12.0862 18.1427 13.674
Pt 10.4747 18.1427 15.953
Pt 13.6977 18.1427 18.232
Pt 9.66896 16.7471 20.511
Pt 12.8919 16.7471 22.79
Pt 11.2805 16.7471 25.069
Pt 12.0862 18.1427 20.511
Pt 10.4747 18.1427 22.79
Pt 13.6977 18.1427 25.069
Pt 9.66896 19.5383 0
Pt 12.8919 19.5383 2.279
Pt 11.2805 19.5383 4.55799
Pt 12.0862 20.9339 0
Pt 10.4747 20.9339 2.279
Pt 13.6977 20.9339 4.55799
Pt 9.66896 19.5383 6.83699
Pt 12.8919 19.5383 9.11598
Pt 11.2805 19.5383 11.395
Pt 12.0862 20.9339 6.83699
Pt 10.4747 20.9339 9.11598
Pt 13.6977 20.9339 11.395
Pt 9.66896 19.5383 13.674
Pt 12.8919 19.5383 15.953
Pt 11.2805 19.5383 18.232
Pt 12.0862 20.9339 13.674
Pt 10.4747 20.9339 15.953
Pt 13.6977 20.9339 18.232
Pt 9.66896 19.5383 20.511
Pt 12.8919 19.5383 22.79
Pt 11.2805 19.5383 25.069
Pt 12.0862 20.9339 20.511
Pt 10.4747 20.9339 22.79
Pt 13.6977 20.9339 25.069
Pt 9.66896 22.3295 0
Pt 12.8919 22.3295 2.279
Pt 11.2805 22.3295 4.55799
Pt 12.0862 23.7251 0
Pt 10.4747 23.7251 2.279
Pt 13.6977 23.7251 4.55799
Pt 9.66896 22.3295 6.83699
Pt 12.8919 22.3295 9.11598
Pt 11.2805 22.3295 11.395
Pt 12.0862 23.7251 6.83699
Pt 10.4747 23.7251 9.11598
Pt 13.6977 23.7251 11.395
Pt 9.66896 22.3295 13.674
Pt 12.8919 22.3295 15.953
Pt 11.2805 22.3295 18.232
Pt 12.0862 23.7251 13.674
Pt 10.4747 23.7251 15.953
Pt 13.6977 23.7251 18.232
Pt 9.66896 22.3295 20.511
Pt 12.8919 22.3295 22.79
Pt 11.2805 22.3295 25.069
Pt 12.0862 23.7251 20.511
Pt 10.4747 23.7251 22.79
Pt 13.6977 23.7251 25.069
Pt 9.66896 25.1207 0
Pt 12.8919 25.1207 2.279
Pt 11.2805 25.1207 4.55799
Pt 12.0862 26.5163 0
Pt 10.4747 26.5163 2.279
Pt 13.6977 26.5163 4.55799
Pt 9.66896 25.1207 6.83699
Pt 12.8919 25.1207 9.11598
Pt 11.2805 25.1207 11.395
Pt 12.0862 26.5163 6.83699
Pt 10.4747 26.5163 9.11598
Pt 13.6977 26.5163 11.395
Pt 9.66896 25.1207 13.674
Pt 12.8919 25.1207 15.953
Pt 11.2805 25.1207 18.232
Pt 12.0862 26.5163 13.674
Pt 10.4747 26.5163 15.953
Pt 13.6977 26.5163 18.232
Pt 9.66896 25.1207 20.511
Pt 12.8919 25.1207 22.79
Pt 11.2805 25.1207 25.069
Pt 12.0862 26.5163 20.511
Pt 10.4747 26.5163 22.79
Pt 13.6977 26.5163 25.069
Pt 9.66896 27.9119 0
Pt 12.8919 27.9119 2.279
Pt 11.2805 27.9119 4.55799
Pt 12.0862 29.3075 0
Pt 10.4747 29.3075 2.279
Pt 13.6977 29.3075 4.55799
Pt 9.66896 27.9119 6.83699
Pt 12.8919 27.9119 9.11598
Pt 11.2805 27.9119 11.395
Pt 12.0862 29.3075 6.83699
Pt 10.4747 29.3075 9.11598
Pt 13.6977 29.3075 11.395
Pt 9.66896 27.9119 13.674
Pt 12.8919 27.9119 15.953
Pt 11.2805 27.9119 18.232
Pt 12.0862 29.3075 13.674
Pt 10.4747 29.3075 15.953
Pt 13.6977 29.3075 18.232
Pt 9.66896 27.9119 20.511
Pt 12.8919 27.9119 22.79
Pt 11.2805 27.9119 25.069
Pt 12.0862 29.3075 20.511
Pt 10.4747 29.3075 22.79
Pt 13.6977 29.3075 25.069
Pt 9.66896 30.7031 0
Pt 12.8919 30.7031 2.279
Pt 11.2805 30.7031 4.55799
Pt 12.0862 32.0987 0
Pt 10.4747 32.0987 2.279
Pt 13.6977 32.0987 4.55799
Pt 9.66896 30.7031 6.83699
Pt 12.8919 30.7031 9.11598
Pt 11.2805 30.7031 11.395
Pt 12.0862 32.0987 6.83699
Pt 10.4747 32.0987 9.11598
Pt 13.6977 32.0987 11.395
Pt 9.66896 30.7031 13.674
Pt 12.8919 30.7031 15.953
Pt 11.2805 30.7031 18.232
Pt 12.0862 32.0987 13.674
Pt 10.4747 32.0987 15.953
Pt 13.6977 32.0987 18.232
Pt 9.66896 30.7031 20.511
Pt 12.8919 30.7031 22.79
Pt 11.2805 30.7031 25.069
Pt 12.0862 32.0987 20.511
Pt 10.4747 32.0987 22.79
Pt 13.6977 32.0987 25.069
Pt 9.66896 33.4943 0
Pt 12.8919 33.4943 2.279
Pt 11.2805 33.4943 4.55799
Pt 12.0862 34.8899 0
Pt 10.4747 34.8899 2.279
Pt 13.6977 34.8899 4.55799
Pt 9.66896 33.4943 6.83699
Pt 12.8919 33.4943 9.11598
Pt 11.2805 33.4943 11.395
Pt 12.0862 34.8899 6.83699
Pt 10.4747 34.8899 9.11598
Pt 13.6977 34.8899 11.395
Pt 9.66896 33.4943 13.674
Pt 12.8919 33.4943 15.953
Pt 11.2805 33.4943 18.232
Pt 12.0862 34.8899 13.674
Pt 10.4747 34.8899 15.953
Pt 13.6977 34.8899 18.232
Pt 9.66896 33.4943 20.511
Pt 12.8919 33.4943 22.79
Pt 11.2805 33.4943 25.069
Pt 12.0862 34.8899 20.511
Pt 10.4747 34.8899 22.79
Pt 13.6977 34.8899 25.069
Pt 9.66896 36.2854 0
Pt 12.8919 36.2854 2.279
Pt 11.2805 36.2854 4.55799
Pt 12.0862 37.681 0
Pt 10.4747 37.681 2.279
Pt 13.6977 37.681 4.55799
Pt 9.66896 36.2854 6.83699
Pt 12.8919 36.2854 9.11598
Pt 11.2805 36.2854 11.395
Pt 12.0862 37.681 6.83699
Pt 10.4747 37.681 9.11598
Pt 13.6977 37.681 11.395
Pt 9.66896 36.2854 13.674
Pt 12.8919 36.2854 15.953
Pt 11.2805 36.2854 18.232
Pt 12.0862 37.681 13.674
Pt 10.4747 37.681 15.953
Pt 13.6977 37.681 18.232
Pt 9.66896 36.2854 20.511
Pt 12.8919 36.2854 22.79
Pt 11.2805 36.2854 25.069
Pt 12.0862 37.681 20.511
Pt 10.4747 37.681 22.79
Pt 13.6977 37.681 25.069
Pt 9.66896 39.0766 0
Pt 12.8919 39.0766 2.279
Pt 11.2805 39.0766 4.55799
Pt 12.0862 40.4722 0
Pt 10.4747 40.4722 2.279
Pt 13.6977 40.4722 4.55799
Pt 9.66896 39.0766 6.83699
Pt 12.8919 39.0766 9.11598
Pt 11.2805 39.0766 11.395
Pt 12.0862 40.4722 6.83699
Pt 10.4747 40.4722 9.11598
Pt 13.6977 40.4722 11.395
Pt 9.66896 39.0766 13.674
Pt 12.8919 39.0766 15.953
Pt 11.2805 39.0766 18.232
Pt 12.0862 40.4722 13.674
Pt 10.4747 40.4722 15.953
Pt 13.6977 40.4722 18.232
Pt 9.66896 39.0766 20.511
Pt 12.8919 39.0766 22.79
Pt 11.2805 39.0766 25.069
Pt 12.0862 40.4722 20.511
Pt 10.4747 40.4722 22.79
Pt 13.6977 40.4722 25.069
Pt 9.66896 41.8678 0
Pt 12.8919 41.8678 2.279
Pt 11.2805 41.8678 4.55799
Pt 12.0862 43.2634 0
Pt 10.4747 43.2634 2.279
Pt 13.6977 43.2634 4.55799
Pt 9.66896 41.8678 6.83699
Pt 12.8919 41.8678 9.11598
Pt 11.2805 41.8678 11.395
Pt 12.0862 43.2634 6.83699
Pt 10.4747 43.2634 9.11598
Pt 13.6977 43.2634 11.395
Pt 9.66896 41.8678 13.674
Pt 12.8919 41.8678 15.953
Pt 11.2805 41.8678 18.232
Pt 12.0862 43.2634 13.674
Pt 10.4747 43.2634 15.953
Pt 13.6977 43.2634 18.232
Pt 9.66896 41.8678 20.511
Pt 12.8919 41.8678 22.79
Pt 11.2805 41.8678 25.069
Pt 12.0862 43.2634 20.511
Pt 10.4747 43.2634 22.79
Pt 13.6977 43.2634 25.069
Pt 14.5034 0 0
Pt 17.7264 0 2.279
Pt 16.1149 0 4.55799
Pt 16.9207 1.39559 0
Pt 15.3092 1.39559 2.279
Pt 18.5322 1.39559 4.55799
Pt 14.5034 0 6.83699
Pt 17.7264 0 9.11598
Pt 16.1149 0 11.395
Pt 16.9207 1.39559 6.83699
Pt 15.3092 1.39559 9.11598
Pt 18.5322 1.39559 11.395
Pt 14.5034 0 13.674
Pt 17.7264 0 15.953
Pt 16.1149 0 18.232
Pt 16.9207 1.39559 13.674
Pt 15.3092 1.39559 15.953
Pt 18.5322 1.39559 18.232
Pt 14.5034 0 20.511
Pt 17.7264 0 22.79
Pt 16.1149 0 25.069
Pt 16.9207 1.39559 20.511
Pt 15.3092 1.39559 22.79
Pt 18.5322 1.39559 25.069
Pt 14.5034 2.79119 0
Pt 17.7264 2.79119 2.279
Pt 16.1149 2.79119 4.55799
Pt 16.9207 4.18678 0
Pt 15.3092 4.18678 2.279
Pt 18.5322 4.18678 4.55799
Pt 14.5034 2.79119 6.83699
Pt 17.7264 2.79119 9.11598
Pt 16.1149 2.79119 11.395
Pt 16.9207 4.18678 6.83699
Pt 15.3092 4.18678 9.11598
Pt 18.5322 4.18678 11.395
Pt 14.5034 2.79119 13.674
Pt 17.7264 2.79119 15.953
Pt 16.1149 2.79119 18.232
Pt 16.9207 4.18678 13.674