ITEM: TIMESTEP
0
ITEM: NUMBER OF ATOMS
3072
ITEM: BOX BOUNDS pp pp pp
0.0000000000000000e+00 3.8675839478873655e+01
0.0000000000000000e+00 4.4659012656503762e+01
0.0000000000000000e+00 6.0000000000000000e+01
ITEM: ATOMS id type x y z c_peratom[1] c_peratom[2] c_peratom[3] c_peratom[4] c_peratom[5] c_peratom[6]
1 1 0 0 0 -248251 -248251 -0.394628 -7.42992e-09 0.0581392 -1.87271e-08
2 1 3.22299 0 2.279 -13426.9 -13427 -97936.8 -6.0901e-10 -0.0617958 3.82154e-09
3 1 1.61149 0 4.55799 -127.246 -127.323 -2207.97 2.67964e-09 -0.0617768 2.63397e-09
4 1 2.41724 1.39559 0 -248251 -248251 -0.394628 -6.0901e-10 0.0581392 1.27892e-09
5 1 0.805747 1.39559 2.279 -13426.9 -13427 -97936.8 -1.30937e-09 -0.0617958 -3.04505e-11
6 1 4.02873 1.39559 4.55799 -127.246 -127.323 -2207.97 1.46162e-09 -0.0617768 -3.34955e-10
25 1 0 2.79119 0 -248251 -248251 -0.394628 -1.46162e-09 0.0581392 4.87208e-10
26 1 3.22299 2.79119 2.279 -13426.9 -13427 -97936.8 7.06451e-09 -0.0617958 3.65406e-10
27 1 1.61149 2.79119 4.55799 -127.246 -127.323 -2207.97 -6.56208e-09 -0.0617768 -1.17234e-09
28 1 2.41724 4.18678 0 -248251 -248251 -0.394628 -1.46162e-09 0.0581392 -3.85199e-09
29 1 0.805747 4.18678 2.279 -13426.9 -13427 -97936.8 5.40496e-09 -0.0617958 -3.02982e-09
30 1 4.02873 4.18678 4.55799 -127.246 -127.323 -2207.97 -1.78135e-09 -0.0617768 2.13153e-10
49 1 0 5.58238 0 -248251 -248251 -0.394628 -1.55298e-09 0.0581392 1.97928e-09
50 1 3.22299 5.58238 2.279 -13426.9 -13427 -97936.8 4.38487e-09 -0.0617958 -5.32884e-10
51 1 1.61149 5.58238 4.55799 -127.246 -127.323 -2207.97 1.7509e-09 -0.0617768 -1.96406e-09
385 1 4.83448 0 0 -248251 -248251 -0.394628 -6.82091e-09 0.0581392 -1.97928e-08
387 1 6.44597 0 4.55799 -127.246 -127.323 -2207.97 -4.87208e-10 -0.0617767 -6.69911e-10
389 1 5.64023 1.39559 2.279 -13426.9 -13427 -97936.8 -1.09622e-09 -0.0617958 2.07063e-09
409 1 4.83448 2.79119 0 -248251 -248251 -0.394628 1.21802e-10 0.0581392 1.84368e-09
411 1 6.44597 2.79119 4.55799 -127.246 -127.323 -2207.97 8.45001e-09 -0.0617768 -1.32388e-10
413 1 5.64023 4.18678 2.279 -13426.9 -13427 -97936.8 3.33219e-09 -0.0617958 -2.19814e-10
433 1 4.83448 5.58238 0 -248251 -248251 -0.394628 1.62709e-09 0.0581392 2.03408e-09
435 1 6.44597 5.58238 4.55799 -127.246 -127.323 -2207.97 7.8465e-10 -0.0617768 -8.98014e-11
386 1 8.05747 0 2.279 -13426.9 -13427 -97936.8 1.67478e-09 -0.0617958 4.29352e-09
388 1 7.25172 1.39559 0 -248251 -248251 -0.394628 -1.06577e-09 0.0581392 1.40072e-09
390 1 8.86321 1.39559 4.55799 -127.246 -127.323 -2207.97 2.43604e-10 -0.0617768 -2.43604e-10
410 1 8.05747 2.79119 2.279 -13426.9 -13427 -97936.8 8.90677e-10 -0.0617958 1.06458e-10
412 1 7.25172 4.18678 0 -248251 -248251 -0.394628 -1.85391e-09 0.0581392 -3.85825e-09
414 1 8.86321 4.18678 4.55799 -127.246 -127.323 -2207.97 7.69245e-09 -0.0617768 -8.36295e-10
434 1 8.05747 5.58238 2.279 -13426.9 -13427 -97936.8 -6.26277e-09 -0.0617958 -8.18164e-10
769 1 9.66896 0 0 -248251 -248251 -0.394628 -6.3337e-09 0.0581392 -2.07063e-08
771 1 11.2805 0 4.55799 -127.246 -127.323 -2207.97 7.30812e-10 -0.0617768 -3.16685e-09
772 1 12.0862 1.39559 0 -248251 -248251 -0.394628 -1.73568e-09 0.0581392 1.15712e-09
773 1 10.4747 1.39559 2.279 -13426.9 -13427 -97936.8 -1.46162e-09 -0.0617958 2.92325e-09
793 1 9.66896 2.79119 0 -248251 -248251 -0.394628 3.4352e-09 0.0581392 2.60732e-09
795 1 11.2805 2.79119 4.55799 -127.246 -127.323 -2207.97 1.10383e-10 -0.0617768 -3.7623e-10
796 1 12.0862 4.18678 0 -248251 -248251 -0.394628 4.3113e-09 0.0581392 -4.75655e-09
797 1 10.4747 4.18678 2.279 -13426.9 -13427 -97936.8 1.63196e-10 -0.0617958 -5.81414e-10
817 1 9.66896 5.58238 0 -248251 -248251 -0.394628 7.71719e-09 0.0581392 2.03408e-09
819 1 11.2805 5.58238 4.55799 -127.246 -127.323 -2207.97 -7.34499e-12 -0.0617768 -8.20794e-10
770 1 12.8919 0 2.279 -13426.9 -13427 -97936.8 4.98627e-10 -0.0617958 1.87175e-09
774 1 13.6977 1.39559 4.55799 -127.246 -127.323 -2207.97 7.00361e-10 -0.0617768 2.13153e-10
794 1 12.8919 2.79119 2.279 -13426.9 -13427 -97936.8 1.29652e-10 -0.0617958 4.10963e-10
798 1 13.6977 4.18678 4.55799 -127.246 -127.323 -2207.97 -9.2228e-09 -0.0617768 -6.07917e-10
818 1 12.8919 5.58238 2.279 -13426.9 -13427 -97936.8 -4.16276e-10 -0.0617958 -2.00573e-09
1153 1 14.5034 0 0 -248251 -248251 -0.394628 -6.82091e-09 0.0581392 -2.07063e-08
1154 1 17.7264 0 2.279 -13426.9 -13427 -97936.8 -2.43604e-10 -0.0617958 9.13515e-10
1155 1 16.1149 0 4.55799 -127.246 -127.323 -2207.97 -1.46162e-09 -0.0617768 -2.50884e-09
1156 1 16.9207 1.39559 0 -248251 -248251 -0.394628 -5.17658e-10 0.0581392 1.15712e-09
1157 1 15.3092 1.39559 2.279 -13426.9 -13427 -97936.8 -2.43604e-09 -0.0617958 2.67964e-09
1158 1 18.5322 1.39559 4.55799 -127.246 -127.323 -2207.97 5.17658e-10 -0.0617768 1.52252e-10
1177 1 14.5034 2.79119 0 -248251 -248251 -0.394628 3.20872e-09 0.0581392 2.8514e-09
1178 1 17.7264 2.79119 2.279 -13426.9 -13427 -97936.8 -3.85865e-09 -0.0617958 -6.24711e-10
1179 1 16.1149 2.79119 4.55799 -127.246 -127.323 -2207.97 -1.77564e-09 -0.0617768 2.06017e-09
1180 1 16.9207 4.18678 0 -248251 -248251 -0.394628 5.36283e-09 0.0581392 -3.49286e-09
1181 1 15.3092 4.18678 2.279 -13426.9 -13427 -97936.8 -7.99682e-09 -0.0617958 1.7327e-09
1182 1 18.5322 4.18678 4.55799 -127.246 -127.323 -2207.97 -6.9624e-09 -0.0617768 -3.29544e-09
1201 1 14.5034 5.58238 0 -248251 -248251 -0.394628 4.79296e-09 0.0581392 2.44516e-09
1202 1 17.7264 5.58238 2.279 -13426.9 -13427 -97936.8 -4.17096e-09 -0.0617958 -2.98567e-10
1203 1 16.1149 5.58238 4.55799 -127.246 -127.323 -2207.97 -2.68665e-09 -0.0617768 1.45876e-09
52 1 2.41724 6.97797 0 -248251 -248251 -0.394628 9.74416e-10 0.0581392 2.19244e-09
53 1 0.805747 6.97797 2.279 -13426.9 -13427 -97936.8 -1.70523e-09 -0.0617958 -2.16199e-09
54 1 4.02873 6.97797 4.55799 -127.246 -127.323 -2207.97 -7.91713e-10 -0.0617768 -2.43604e-09
73 1 0 8.37356 0 -248251 -248251 -0.394628 -7.27176e-09 0.0581392 -1.47988e-09
74 1 3.22299 8.37356 2.279 -13426.9 -13427 -97936.8 2.63397e-09 -0.0617958 -3.65406e-10
75 1 1.61149 8.37356 4.55799 -127.246 -127.323 -2207.97 5.63334e-09 -0.0617768 -1.58343e-09
76 1 2.41724 9.76916 0 -248251 -248251 -0.394628 -1.97252e-09 0.0581392 -4.52777e-09
77 1 0.805747 9.76916 2.279 -13426.9 -13427 -97936.8 1.1706e-09 -0.0617958 -9.52304e-10
78 1 4.02873 9.76916 4.55799 -127.246 -127.323 -2207.97 3.07651e-09 -0.0617768 -1.057e-09
97 1 0 11.1648 0 -248251 -248251 -0.394628 -2.52271e-09 0.0581392 4.8788e-09
98 1 3.22299 11.1648 2.279 -13426.9 -13427 -97936.8 1.48217e-09 -0.0617958 -2.13381e-09
99 1 1.61149 11.1648 4.55799 -127.246 -127.323 -2207.97 7.32451e-09 -0.0617768 -3.16426e-09
437 1 5.64023 6.97797 2.279 -13426.9 -13427 -97936.8 -4.83962e-09 -0.0617958 -6.88366e-10
457 1 4.83448 8.37356 0 -248251 -248251 -0.394628 -8.37389e-10 0.0581392 8.83064e-10
459 1 6.44597 8.37356 4.55799 -127.246 -127.323 -2207.97 -4.7655e-09 -0.0617768 -2.26856e-09
461 1 5.64023 9.76916 2.279 -13426.9 -13427 -97936.8 -6.44272e-11 -0.0617958 7.36085e-10
481 1 4.83448 11.1648 0 -248251 -248251 -0.394628 2.19423e-09 0.0581392 4.05779e-09
483 1 6.44597 11.1648 4.55799 -127.246 -127.323 -2207.97 -3.14405e-11 -0.0617768 -8.82113e-10
436 1 7.25172 6.97797 0 -248251 -248251 -0.394628 1.24114e-09 0.0581392 1.70523e-09
438 1 8.86321 6.97797 4.55799 -127.246 -127.323 -2207.97 1.66744e-09 -0.0617768 -2.43604e-09
458 1 8.05747 8.37356 2.279 -13426.9 -13427 -97936.8 -6.30325e-09 -0.0617958 -7.61262e-10
460 1 7.25172 9.76916 0 -248251 -248251 -0.394628 -2.44939e-09 0.0581392 -4.41827e-09
462 1 8.86321 9.76916 4.55799 -127.246 -127.323 -2207.97 1.46543e-09 -0.0617768 -1.73878e-09
482 1 8.05747 11.1648 2.279 -13426.9 -13427 -97936.8 -2.52827e-09 -0.0617958 -2.10226e-09
820 1 12.0862 6.97797 0 -248251 -248251 -0.394628 -7.07694e-10 0.0581392 1.70523e-09
821 1 10.4747 6.97797 2.279 -13426.9 -13427 -97936.8 -1.80691e-10 -0.0617958 8.34159e-10
841 1 9.66896 8.37356 0 -248251 -248251 -0.394628 1.12667e-09 0.0581392 -1.4464e-09
843 1 11.2805 8.37356 4.55799 -127.246 -127.323 -2207.97 -6.54686e-10 -0.0617768 -1.88793e-09
844 1 12.0862 9.76916 0 -248251 -248251 -0.394628 -4.25631e-09 0.0581392 -2.4698e-09
845 1 10.4747 9.76916 2.279 -13426.9 -13427 -97936.8 1.09208e-09 -0.0617958 1.58671e-09
865 1 9.66896 11.1648 0 -248251 -248251 -0.394628 4.03597e-09 0.0581392 4.303e-09
867 1 11.2805 11.1648 4.55799 -127.246 -127.323 -2207.97 -7.12293e-10 -0.0617768 -6.70132e-10
822 1 13.6977 6.97797 4.55799 -127.246 -127.323 -2207.97 -3.02193e-09 -0.0617768 -2.43604e-09
842 1 12.8919 8.37356 2.279 -13426.9 -13427 -97936.8 -7.61262e-11 -0.0617958 -4.56757e-10
846 1 13.6977 9.76916 4.55799 -127.246 -127.323 -2207.97 -3.01277e-09 -0.0617768 -1.29292e-09
866 1 12.8919 11.1648 2.279 -13426.9 -13427 -97936.8 3.77378e-10 -0.0617958 5.3647e-10
1204 1 16.9207 6.97797 0 -248251 -248251 -0.394628 5.22333e-10 0.0581392 1.87983e-09
1205 1 15.3092 6.97797 2.279 -13426.9 -13427 -97936.8 -3.34754e-09 -0.0617958 -2.92648e-09
1206 1 18.5322 6.97797 4.55799 -127.246 -127.323 -2207.97 2.56125e-09 -0.0617768 -9.29778e-10
1225 1 14.5034 8.37356 0 -248251 -248251 -0.394628 -3.24298e-09 0.0581392 -1.11144e-09
1226 1 17.7264 8.37356 2.279 -13426.9 -13427 -97936.8 2.3565e-09 -0.0617958 5.27693e-10
1227 1 16.1149 8.37356 4.55799 -127.246 -127.323 -2207.97 1.52113e-09 -0.0617768 -7.9362e-10
1228 1 16.9207 9.76916 0 -248251 -248251 -0.394628 -4.54443e-09 0.0581392 -3.94654e-09
1229 1 15.3092 9.76916 2.279 -13426.9 -13427 -97936.8 -2.60814e-09 -0.0617958 9.8324e-10
1230 1 18.5322 9.76916 4.55799 -127.246 -127.323 -2207.97 4.00033e-09 -0.0617768 2.25533e-09
1249 1 14.5034 11.1648 0 -248251 -248251 -0.394628 -9.89087e-10 0.0581392 4.53397e-09
1250 1 17.7264 11.1648 2.279 -13426.9 -13427 -97936.8 4.61326e-09 -0.0617958 1.99584e-09
1251 1 16.1149 11.1648 4.55799 -127.246 -127.323 -2207.97 2.76626e-09 -0.0617768 8.08459e-10
100 1 2.41724 12.5603 0 -248251 -248251 -0.394628 1.44878e-10 0.0581392 3.34997e-10
101 1 0.805747 12.5603 2.279 -13426.9 -13427 -97936.8 -7.64357e-10 -0.0617958 -3.71716e-10
102 1 4.02873 12.5603 4.55799 -127.246 -127.323 -2207.97 -2.15873e-10 -0.0617768 2.62045e-10
121 1 0 13.9559 0 -248251 -248251 -0.394628 3.72669e-09 0.0581392 -4.79563e-09
122 1 3.22299 13.9559 2.279 -13426.9 -13427 -97936.8 -2.19744e-09 -0.0617958 1.48851e-09
123 1 1.61149 13.9559 4.55799 -127.246 -127.323 -2207.97 -7.99796e-09 -0.0617768 1.84706e-09
124 1 2.41724 15.3515 0 -248251 -248251 -0.394628 5.6752e-09 0.0581392 1.01722e-08
125 1 0.805747 15.3515 2.279 -13426.9 -13427 -97936.8 -4.3701e-09 -0.0617958 -7.2256e-10
126 1 4.02873 15.3515 4.55799 -127.246 -127.323 -2207.97 -4.70406e-09 -0.0617768 5.1913e-10
485 1 5.64023 12.5603 2.279 -13426.9 -13427 -97936.8 -1.05057e-09 -0.0617958 -4.52061e-10
505 1 4.83448 13.9559 0 -248251 -248251 -0.394628 -2.03718e-09 0.0581392 -5.14437e-09
507 1 6.44597 13.9559 4.55799 -127.246 -127.323 -2207.97 5.04177e-10 -0.0617768 -2.08956e-11
509 1 5.64023 15.3515 2.279 -13426.9 -13427 -97936.8 -1.61733e-11 -0.0617958 -3.11581e-09
484 1 7.25172 12.5603 0 -248251 -248251 -0.394628 -3.53308e-10 0.0581392 -6.53792e-11
486 1 8.86321 12.5603 4.55799 -127.246 -127.323 -2207.97 8.05228e-10 -0.0617768 2.47653e-10
506 1 8.05747 13.9559 2.279 -13426.9 -13427 -97936.8 2.75571e-09 -0.0617958 1.73923e-09
508 1 7.25172 15.3515 0 -248251 -248251 -0.394628 4.91456e-09 0.0581392 1.05325e-08
510 1 8.86321 15.3515 4.55799 -127.246 -127.323 -2207.97 2.30699e-09 -0.0617768 -2.45604e-10
868 1 12.0862 12.5603 0 -248251 -248251 -0.394628 -1.04958e-09 0.0581392 6.84624e-10
869 1 10.4747 12.5603 2.279 -13426.9 -13427 -97936.8 -2.91446e-10 -0.0617958 -6.84945e-10
889 1 9.66896 13.9559 0 -248251 -248251 -0.394628 -3.71575e-09 0.0581392 -5.32343e-09
891 1 11.2805 13.9559 4.55799 -127.246 -127.323 -2207.97 1.86489e-10 -0.0617768 3.69553e-10
892 1 12.0862 15.3515 0 -248251 -248251 -0.394628 1.20186e-08 0.0581392 1.05462e-08
893 1 10.4747 15.3515 2.279 -13426.9 -13427 -97936.8 -4.52511e-10 -0.0617958 -1.15541e-09
870 1 13.6977 12.5603 4.55799 -127.246 -127.323 -2207.97 7.18595e-11 -0.0617768 7.38366e-10
890 1 12.8919 13.9559 2.279 -13426.9 -13427 -97936.8 1.90026e-10 -0.0617958 9.47519e-10
894 1 13.6977 15.3515 4.55799 -127.246 -127.323 -2207.97 -6.82903e-09 -0.0617768 -2.46465e-10
1252 1 16.9207 12.5603 0 -248251 -248251 -0.394628 6.57103e-10 0.0581392 1.84102e-10
1253 1 15.3092 12.5603 2.279 -13426.9 -13427 -97936.8 1.29847e-11 -0.0617958 -2.47234e-10
1254 1 18.5322 12.5603 4.55799 -127.246 -127.323 -2207.97 -2.94273e-10 -0.0617768 2.4795e-10
1273 1 14.5034 13.9559 0 -248251 -248251 -0.394628 1.60213e-09 0.0581392 -5.34347e-09
1274 1 17.7264 13.9559 2.279 -13426.9 -13427 -97936.8 -4.12358e-09 -0.0617958 -1.70443e-09
1275 1 16.1149 13.9559 4.55799 -127.246 -127.323 -2207.97 -3.59932e-09 -0.0617768 -2.68903e-10
1276 1 16.9207 15.3515 0 -248251 -248251 -0.394628 1.1776e-08 0.0581392 1.05463e-08
1277 1 15.3092 15.3515 2.279 -13426.9 -13427 -97936.8 -6.65997e-09 -0.0617958 -3.03966e-09
1278 1 18.5322 15.3515 4.55799 -127.246 -127.323 -2207.97 -6.65039e-09 -0.0617768 -2.92976e-09
145 1 0 16.7471 0 -248251 -248251 -0.394628 -8.08578e-09 0.0581392 -2.6664e-09
146 1 3.22299 16.7471 2.279 -13426.9 -13427 -97936.8 1.85555e-09 -0.0617958 -1.89692e-09
147 1 1.61149 16.7471 4.55799 -127.246 -127.323 -2207.97 2.10342e-09 -0.0617768 -2.68951e-09
148 1 2.41724 18.1427 0 -248251 -248251 -0.394628 -3.82596e-09 0.0581392 -6.75893e-09
149 1 0.805747 18.1427 2.279 -13426.9 -13427 -97936.8 1.81621e-09 -0.0617958 -6.7152e-11
150 1 4.02873 18.1427 4.55799 -127.246 -127.323 -2207.97 -1.39948e-09 -0.0617768 -2.92648e-09
169 1 0 19.5383 0 -248251 -248251 -0.394628 -3.74541e-09 0.0581392 9.80506e-09
170 1 3.22299 19.5383 2.279 -13426.9 -13427 -97936.8 -1.94883e-09 -0.0617958 -3.48658e-09
171 1 1.61149 19.5383 4.55799 -127.246 -127.323 -2207.97 6.94271e-09 -0.0617768 -2.67964e-09
172 1 2.41724 20.9339 0 -248251 -248251 -0.394628 -6.57731e-09 0.0581392 -1.52557e-08
173 1 0.805747 20.9339 2.279 -13426.9 -13427 -97936.8 -5.78559e-09 -0.0617958 -2.28379e-09
174 1 4.02873 20.9339 4.55799 -127.246 -127.323 -2207.97 -2.61874e-09 -0.0617768 -4.84163e-09
193 1 0 22.3295 0 -248251 -248251 -0.394628 6.0901e-09 0.0581392 1.51643e-08
194 1 3.22299 22.3295 2.279 -13426.9 -13427 -97936.8 -9.74416e-10 -0.0617958 -2.34469e-09
195 1 1.61149 22.3295 4.55799 -127.246 -127.323 -2207.97 4.26307e-09 -0.0617768 -2.31424e-09
529 1 4.83448 16.7471 0 -248251 -248251 -0.394628 -1.1414e-09 0.0581392 -2.52143e-09
531 1 6.44597 16.7471 4.55799 -127.246 -127.323 -2207.97 -5.59733e-09 -0.0617768 -1.37195e-09
533 1 5.64023 18.1427 2.279 -13426.9 -13427 -97936.8 -4.77169e-09 -0.0617958 5.88194e-10
553 1 4.83448 19.5383 0 -248251 -248251 -0.394628 2.20195e-09 0.0581392 9.52101e-09
555 1 6.44597 19.5383 4.55799 -127.246 -127.323 -2207.97 -5.31742e-09 -0.0617768 -1.08087e-09
557 1 5.64023 20.9339 2.279 -13426.9 -13427 -97936.8 -1.94883e-09 -0.0617958 1.21802e-10
577 1 4.83448 22.3295 0 -248251 -248251 -0.394628 7.79533e-09 0.0581392 1.56516e-08
579 1 6.44597 22.3295 4.55799 -127.246 -127.323 -2207.97 -2.19244e-09 -0.0617768 -1.41928e-09
530 1 8.05747 16.7471 2.279 -13426.9 -13427 -97936.8 -9.8309e-09 -0.0617958 -2.60734e-09
532 1 7.25172 18.1427 0 -248251 -248251 -0.394628 -3.7981e-09 0.0581392 -6.92067e-09
534 1 8.86321 18.1427 4.55799 -127.246 -127.323 -2207.97 -1.02699e-09 -0.0617768 -3.45701e-09
554 1 8.05747 19.5383 2.279 -13426.9 -13427 -97936.8 -6.82353e-09 -0.0617958 -3.14663e-09
556 1 7.25172 20.9339 0 -248251 -248251 -0.394628 -6.51641e-09 0.0581392 -1.55298e-08
558 1 8.86321 20.9339 4.55799 -127.246 -127.323 -2207.97 -1.93741e-09 -0.0617768 -3.77806e-09
578 1 8.05747 22.3295 2.279 -13426.9 -13427 -97936.8 -1.4445e-09 -0.0617958 -2.44984e-09
913 1 9.66896 16.7471 0 -248251 -248251 -0.394628 5.4359e-09 0.0581392 -2.27783e-09
915 1 11.2805 16.7471 4.55799 -127.246 -127.323 -2207.97 1.88427e-10 -0.0617768 3.013e-09
916 1 12.0862 18.1427 0 -248251 -248251 -0.394628 -9.78044e-09 0.0581392 -6.15955e-09
917 1 10.4747 18.1427 2.279 -13426.9 -13427 -97936.8 1.15236e-09 -0.0617958 3.97926e-09
937 1 9.66896 19.5383 0 -248251 -248251 -0.394628 2.05351e-09 0.0581392 9.35163e-09
939 1 11.2805 19.5383 4.55799 -127.246 -127.323 -2207.97 1.60436e-09 -0.0617768 4.2796e-09
940 1 12.0862 20.9339 0 -248251 -248251 -0.394628 -6.3946e-09 0.0581392 -1.48903e-08
941 1 10.4747 20.9339 2.279 -13426.9 -13427 -97936.8 1.09622e-09 -0.0617958 2.19244e-09
961 1 9.66896 22.3295 0 -248251 -248251 -0.394628 7.30812e-09 0.0581392 1.58952e-08
963 1 11.2805 22.3295 4.55799 -127.246 -127.323 -2207.97 9.74416e-10 -0.0617768 1.94883e-09
914 1 12.8919 16.7471 2.279 -13426.9 -13427 -97936.8 -8.1755e-10 -0.0617958 -9.78239e-10
918 1 13.6977 18.1427 4.55799 -127.246 -127.323 -2207.97 -1.07267e-09 -0.0617768 -2.51304e-09
938 1 12.8919 19.5383 2.279 -13426.9 -13427 -97936.8 -1.2361e-09 -0.0617958 -2.40047e-09
942 1 13.6977 20.9339 4.55799 -127.246 -127.323 -2207.97 -8.52614e-10 -0.0617768 -4.53712e-09
962 1 12.8919 22.3295 2.279 -13426.9 -13427 -97936.8 -2.72151e-10 -0.0617958 -1.97357e-09
1297 1 14.5034 16.7471 0 -248251 -248251 -0.394628 -1.99409e-09 0.0581392 -2.52143e-09
1298 1 17.7264 16.7471 2.279 -13426.9 -13427 -97936.8 -6.95176e-10 -0.0617958 -1.26055e-10
1299 1 16.1149 16.7471 4.55799 -127.246 -127.323 -2207.97 5.53224e-10 -0.0617768 -1.61556e-09
1300 1 16.9207 18.1427 0 -248251 -248251 -0.394628 -9.78115e-09 0.0581392 -7.13396e-09
1301 1 15.3092 18.1427 2.279 -13426.9 -13427 -97936.8 6.04014e-10 -0.0617958 1.46745e-09
1302 1 18.5322 18.1427 4.55799 -127.246 -127.323 -2207.97 7.14944e-09 -0.0617768 2.14578e-09
1321 1 14.5034 19.5383 0 -248251 -248251 -0.394628 -3.55129e-09 0.0581392 9.59476e-09
1322 1 17.7264 19.5383 2.279 -13426.9 -13427 -97936.8 5.61621e-09 -0.0617958 1.87711e-09
1323 1 16.1149 19.5383 4.55799 -127.246 -127.323 -2207.97 6.42505e-09 -0.0617768 1.35499e-09
1324 1 16.9207 20.9339 0 -248251 -248251 -0.394628 -6.57731e-09 0.0581392 -1.55602e-08
1325 1 15.3092 20.9339 2.279 -13426.9 -13427 -97936.8 7.91713e-10 -0.0617958 -0
1326 1 18.5322 20.9339 4.55799 -127.246 -127.323 -2207.97 5.17658e-10 -0.0617768 -2.13153e-09
1345 1 14.5034 22.3295 0 -248251 -248251 -0.394628 6.3337e-09 0.0581392 1.61997e-08
1346 1 17.7264 22.3295 2.279 -13426.9 -13427 -97936.8 7.30812e-10 -0.0617958 -1.21802e-10
1347 1 16.1149 22.3295 4.55799 -127.246 -127.323 -2207.97 -4.87208e-10 -0.0617768 9.74416e-10
7 1 0 0 6.83699 -0.244291 -0.129307 -2.26081 4.87208e-10 0.116278 2.80145e-09
8 1 3.22299 0 9.11598 0.1334 0.0572009 0.365958 -8.06938e-10 -0.0617767 2.96892e-09
9 1 1.61149 0 11.395 0.1334 0.0572009 0.365958 1.33982e-09 -0.0617768 7.61262e-11
10 1 2.41724 1.39559 6.83699 -0.244291 -0.129307 -2.26081 4.87208e-10 0.116278 7.91713e-10
11 1 0.805747 1.39559 9.11598 0.1334 0.0572009 0.365958 -1.82703e-10 -0.0617768 -7.61262e-10
12 1 4.02873 1.39559 11.395 0.1334 0.0572009 0.365958 -7.91713e-10 -0.0617768 6.0901e-11
31 1 0 2.79119 6.83699 -0.244291 -0.129307 -2.26081 -0 0.116278 -2.74054e-10
32 1 3.22299 2.79119 9.11598 0.1334 0.0572008 0.365958 6.04442e-09 -0.0617768 -1.85748e-09
33 1 1.61149 2.79119 11.395 0.1334 0.0572008 0.365958 -7.5365e-09 -0.0617768 2.23811e-09
34 1 2.41724 4.18678 6.83699 -0.244291 -0.129307 -2.26081 2.28379e-10 0.116278 -2.43604e-10
35 1 0.805747 4.18678 9.11598 0.1334 0.0572008 0.365958 7.70397e-09 -0.0617768 2.86235e-09
36 1 4.02873 4.18678 11.395 0.1334 0.0572008 0.365958 -3.56271e-09 -0.0617768 -1.4464e-09
55 1 0 5.58238 6.83699 -0.244291 -0.129307 -2.26081 -3.69973e-09 0.116278 -1.5073e-09
56 1 3.22299 5.58238 9.11598 0.1334 0.0572008 0.365958 4.61325e-09 -0.0617768 -2.55784e-09
57 1 1.61149 5.58238 11.395 0.1334 0.0572008 0.365958 1.87271e-09 -0.0617768 2.28379e-10
391 1 4.83448 0 6.83699 -0.244291 -0.129307 -2.26081 1.46162e-09 0.116278 1.21802e-09
393 1 6.44597 0 11.395 0.1334 0.0572009 0.365958 -0 -0.0617767 1.94883e-09
395 1 5.64023 1.39559 9.11598 0.1334 0.0572009 0.365958 -2.61874e-09 -0.0617768 2.19244e-09
415 1 4.83448 2.79119 6.83699 -0.244291 -0.129307 -2.26081 -5.29077e-10 0.116278 -1.37884e-09
417 1 6.44597 2.79119 11.395 0.1334 0.0572008 0.365958 8.80019e-09 -0.0617768 4.27615e-11
419 1 5.64023 4.18678 9.11598 0.1334 0.0572008 0.365958 4.2909e-09 -0.0617768 2.38572e-09
439 1 4.83448 5.58238 6.83699 -0.244291 -0.129307 -2.26081 -7.43391e-10 0.116278 -9.05501e-10
441 1 6.44597 5.58238 11.395 0.1334 0.0572008 0.365958 -3.11567e-10 -0.0617768 2.83345e-09
392 1 8.05747 0 9.11598 0.1334 0.0572009 0.365958 7.13683e-10 -0.0617767 2.85521e-09
394 1 7.25172 1.39559 6.83699 -0.244291 -0.129307 -2.26081 -1.21802e-10 0.116278 -0
396 1 8.86321 1.39559 11.395 0.1334 0.0572009 0.365958 2.74054e-10 -0.0617768 7.30812e-10
416 1 8.05747 2.79119 9.11598 0.1334 0.0572008 0.365958 1.16568e-10 -0.0617768 -1.94574e-09
418 1 7.25172 4.18678 6.83699 -0.244291 -0.129307 -2.26081 -7.63582e-10 0.116278 -2.07611e-09
420 1 8.86321 4.18678 11.395 0.1334 0.0572008 0.365958 7.06822e-09 -0.0617768 -2.25224e-09
440 1 8.05747 5.58238 9.11598 0.1334 0.0572008 0.365958 -6.55594e-09 -0.0617768 -2.7691e-09
775 1 9.66896 0 6.83699 -0.244291 -0.129307 -2.26081 2.92325e-09 0.116278 -9.74416e-10
777 1 11.2805 0 11.395 0.1334 0.0572009 0.365958 -1.21802e-09 -0.0617767 -1.94883e-09
778 1 12.0862 1.39559 6.83699 -0.244291 -0.129307 -2.26081 1.21802e-10 0.116278 9.43965e-10
779 1 10.4747 1.39559 9.11598 0.1334 0.0572009 0.365958 -1.76613e-09 -0.0617768 1.21802e-09
799 1 9.66896 2.79119 6.83699 -0.244291 -0.129307 -2.26081 3.15163e-09 0.116278 5.28126e-10
801 1 11.2805 2.79119 11.395 0.1334 0.0572008 0.365958 5.82366e-10 -0.0617768 1.99118e-09
802 1 12.0862 4.18678 6.83699 -0.244291 -0.129307 -2.26081 6.51165e-09 0.116278 3.58775e-10
803 1 10.4747 4.18678 9.11598 0.1334 0.0572008 0.365958 1.09408e-09 -0.0617768 1.35184e-09
823 1 9.66896 5.58238 6.83699 -0.244291 -0.129307 -2.26081 5.90134e-09 0.116278 5.31545e-10
825 1 11.2805 5.58238 11.395 0.1334 0.0572008 0.365958 -1.04241e-09 -0.0617768 -1.79503e-09
776 1 12.8919 0 9.11598 0.1334 0.0572009 0.365958 4.87208e-10 -0.0617768 -4.26307e-10
780 1 13.6977 1.39559 11.395 0.1334 0.0572009 0.365958 -1.90316e-11 -0.0617768 6.67145e-10
800 1 12.8919 2.79119 9.11598 0.1334 0.0572008 0.365958 -6.75145e-10 -0.0617768 -2.43283e-09
804 1 13.6977 4.18678 11.395 0.1334 0.0572008 0.365958 -9.4055e-09 -0.0617768 -1.82594e-09
824 1 12.8919 5.58238 9.11598 0.1334 0.0572008 0.365958 1.7266e-09 -0.0617768 1.12857e-09
1159 1 14.5034 0 6.83699 -0.244291 -0.129307 -2.26081 2.43604e-09 0.116278 -1.21802e-10
1160 1 17.7264 0 9.11598 0.1334 0.0572009 0.365958 -1.21802e-10 -0.0617768 1.37027e-09
1161 1 16.1149 0 11.395 0.1334 0.0572009 0.365958 -7.30812e-10 -0.0617768 1.26798e-09
1162 1 16.9207 1.39559 6.83699 -0.244291 -0.129307 -2.26081 -6.0901e-11 0.116278 7.86003e-10
1163 1 15.3092 1.39559 9.11598 0.1334 0.0572009 0.365958 -1.58343e-09 -0.0617768 2.43604e-09
1164 1 18.5322 1.39559 11.395 0.1334 0.0572009 0.365958 -9.43965e-10 -0.0617768 3.65406e-10
1183 1 14.5034 2.79119 6.83699 -0.244291 -0.129307 -2.26081 3.21633e-09 0.116278 3.13069e-10
1184 1 17.7264 2.79119 9.11598 0.1334 0.0572008 0.365958 -3.4076e-09 -0.0617768 -1.58081e-10
1185 1 16.1149 2.79119 11.395 0.1334 0.0572008 0.365958 -2.82428e-09 -0.0617768 1.76214e-09
1186 1 16.9207 4.18678 6.83699 -0.244291 -0.129307 -2.26081 5.83817e-09 0.116278 -4.18813e-10
1187 1 15.3092 4.18678 9.11598 0.1334 0.0572008 0.365958 -6.79189e-09 -0.0617768 4.22929e-09
1188 1 18.5322 4.18678 11.395 0.1334 0.0572008 0.365958 -7.19247e-09 -0.0617768 -1.10179e-09
1207 1 14.5034 5.58238 6.83699 -0.244291 -0.129307 -2.26081 3.76884e-09 0.116278 1.74957e-09
1208 1 17.7264 5.58238 9.11598 0.1334 0.0572008 0.365958 -4.99772e-09 -0.0617768 -3.78916e-09
1209 1 16.1149 5.58238 11.395 0.1334 0.0572008 0.365958 -1.95583e-09 -0.0617768 5.35562e-09
58 1 2.41724 6.97797 6.83699 -0.244291 -0.129307 -2.26081 -4.87208e-10 0.116278 -2.25334e-09
59 1 0.805747 6.97797 9.11598 0.1334 0.0572008 0.365958 -1.21802e-09 -0.0617768 -1.18757e-09
60 1 4.02873 6.97797 11.395 0.1334 0.0572008 0.365958 -0 -0.0617768 7.30812e-10
79 1 0 8.37356 6.83699 -0.244291 -0.129307 -2.26081 -6.40983e-09 0.116278 -2.60352e-09
80 1 3.22299 8.37356 9.11598 0.1334 0.0572008 0.365958 2.93847e-09 -0.0617768 2.74054e-10
81 1 1.61149 8.37356 11.395 0.1334 0.0572008 0.365958 4.12604e-09 -0.0617768 -1.84225e-09
82 1 2.41724 9.76916 6.83699 -0.244291 -0.129307 -2.26081 -4.96722e-10 0.116278 -3.34681e-10
83 1 0.805747 9.76916 9.11598 0.1334 0.0572008 0.365958 1.907e-09 -0.0617768 -2.27401e-09
84 1 4.02873 9.76916 11.395 0.1334 0.0572008 0.365958 1.43475e-09 -0.0617768 -7.67547e-10
103 1 0 11.1648 6.83699 -0.244291 -0.129307 -2.26081 -6.39692e-09 0.116278 -1.77626e-09
104 1 3.22299 11.1648 9.11598 0.1334 0.0572008 0.365958 3.18358e-09 -0.0617768 -4.14682e-10
105 1 1.61149 11.1648 11.395 0.1334 0.0572008 0.365958 7.21597e-09 -0.0617768 -7.59324e-10
443 1 5.64023 6.97797 9.11598 0.1334 0.0572008 0.365958 -3.27674e-09 -0.0617768 1.98877e-09
463 1 4.83448 8.37356 6.83699 -0.244291 -0.129307 -2.26081 -6.69911e-10 0.116278 -1.64433e-09
465 1 6.44597 8.37356 11.395 0.1334 0.0572008 0.365958 -3.02982e-09 -0.0617768 2.51217e-09
467 1 5.64023 9.76916 9.11598 0.1334 0.0572008 0.365958 -3.11645e-12 -0.0617768 2.07135e-09
487 1 4.83448 11.1648 6.83699 -0.244291 -0.129307 -2.26081 -9.16965e-10 0.116278 -9.33349e-10
489 1 6.44597 11.1648 11.395 0.1334 0.0572008 0.365958 -5.75588e-10 -0.0617768 1.55301e-09
442 1 7.25172 6.97797 6.83699 -0.244291 -0.129307 -2.26081 -5.13882e-11 0.116278 -1.08483e-09
444 1 8.86321 6.97797 11.395 0.1334 0.0572008 0.365958 2.09375e-09 -0.0617768 2.43604e-10
464 1 8.05747 8.37356 9.11598 0.1334 0.0572008 0.365958 -6.50118e-09 -0.0617768 4.41532e-10
466 1 7.25172 9.76916 6.83699 -0.244291 -0.129307 -2.26081 -5.69707e-10 0.116278 -9.74378e-10
468 1 8.86321 9.76916 11.395 0.1334 0.0572008 0.365958 1.99224e-09 -0.0617768 -9.77428e-10
488 1 8.05747 11.1648 9.11598 0.1334 0.0572008 0.365958 -2.80208e-09 -0.0617768 -7.76638e-10
826 1 12.0862 6.97797 6.83699 -0.244291 -0.129307 -2.26081 -2.73078e-09 0.116278 -1.08465e-09
827 1 10.4747 6.97797 9.11598 0.1334 0.0572008 0.365958 -2.31689e-10 -0.0617768 -5.08166e-10
847 1 9.66896 8.37356 6.83699 -0.244291 -0.129307 -2.26081 2.20766e-09 0.116278 3.1973e-10
849 1 11.2805 8.37356 11.395 0.1334 0.0572008 0.365958 -1.93361e-09 -0.0617768 -5.32884e-09
850 1 12.0862 9.76916 6.83699 -0.244291 -0.129307 -2.26081 -2.98636e-09 0.116278 -7.63707e-10
851 1 10.4747 9.76916 9.11598 0.1334 0.0572008 0.365958 2.75545e-10 -0.0617768 8.81174e-10
871 1 9.66896 11.1648 6.83699 -0.244291 -0.129307 -2.26081 2.93364e-09 0.116278 8.87183e-10
873 1 11.2805 11.1648 11.395 0.1334 0.0572008 0.365958 -2.96676e-09 -0.0617768 -1.4014e-09
828 1 13.6977 6.97797 11.395 0.1334 0.0572008 0.365958 -3.26554e-09 -0.0617768 2.43604e-10
848 1 12.8919 8.37356 9.11598 0.1334 0.0572008 0.365958 1.05054e-09 -0.0617768 3.2582e-09
852 1 13.6977 9.76916 11.395 0.1334 0.0572008 0.365958 -2.29613e-09 -0.0617768 -8.0577e-10
872 1 12.8919 11.1648 9.11598 0.1334 0.0572008 0.365958 5.77973e-10 -0.0617768 8.73413e-10
1210 1 16.9207 6.97797 6.83699 -0.244291 -0.129307 -2.26081 -3.33979e-09 0.116278 -3.53841e-10
1211 1 15.3092 6.97797 9.11598 0.1334 0.0572008 0.365958 -1.93692e-09 -0.0617768 4.24211e-09
1212 1 18.5322 6.97797 11.395 0.1334 0.0572008 0.365958 2.66722e-10 -0.0617768 -3.34955e-09
1231 1 14.5034 8.37356 6.83699 -0.244291 -0.129307 -2.26081 -2.86235e-09 0.116278 -6.0901e-11
1232 1 17.7264 8.37356 9.11598 0.1334 0.0572008 0.365958 3.80631e-10 -0.0617768 -4.49145e-09
1233 1 16.1149 8.37356 11.395 0.1334 0.0572008 0.365958 2.13153e-09 -0.0617768 4.23262e-09
1234 1 16.9207 9.76916 6.83699 -0.244291 -0.129307 -2.26081 -2.60352e-09 0.116278 -1.37027e-10
1235 1 15.3092 9.76916 9.11598 0.1334 0.0572008 0.365958 -1.20279e-09 -0.0617768 3.27343e-09
1236 1 18.5322 9.76916 11.395 0.1334 0.0572008 0.365958 7.61262e-10 -0.0617768 -3.02982e-09
1255 1 14.5034 11.1648 6.83699 -0.244291 -0.129307 -2.26081 -2.92325e-09 0.116278 8.22163e-10
1256 1 17.7264 11.1648 9.11598 0.1334 0.0572008 0.365958 2.25334e-09 -0.0617768 -3.62361e-09
1257 1 16.1149 11.1648 11.395 0.1334 0.0572008 0.365958 4.38487e-09 -0.0617768 2.67964e-09
106 1 2.41724 12.5603 6.83699 -0.244291 -0.129307 -2.26081 -1.21802e-10 0.116278 -0
107 1 0.805747 12.5603 9.11598 0.1334 0.0572008 0.365958 3.04505e-10 -0.0617768 -4.87208e-10
108 1 4.02873 12.5603 11.395 0.1334 0.0572008 0.365958 9.74416e-10 -0.0617768 -0
127 1 0 13.9559 6.83699 -0.244291 -0.129307 -2.26081 5.46586e-09 0.116278 1.33982e-09
128 1 3.22299 13.9559 9.11598 0.1334 0.0572008 0.365958 -2.23811e-09 -0.0617768 8.52614e-10
129 1 1.61149 13.9559 11.395 0.1334 0.0572008 0.365958 -9.3483e-09 -0.0617768 1.97928e-10
130 1 2.41724 15.3515 6.83699 -0.244291 -0.129307 -2.26081 -2.43604e-10 0.116278 -1.41595e-09
131 1 0.805747 15.3515 9.11598 0.1334 0.0572009 0.365958 -5.11568e-09 -0.0617768 -3.65406e-10
132 1 4.02873 15.3515 11.395 0.1334 0.0572008 0.365958 -5.11568e-09 -0.0617768 1.46162e-09
491 1 5.64023 12.5603 9.11598 0.1334 0.0572007 0.365958 1.82703e-10 -0.0617768 4.71983e-10
511 1 4.83448 13.9559 6.83699 -0.244291 -0.129307 -2.26081 1.82703e-10 0.116278 1.52252e-09
513 1 6.44597 13.9559 11.395 0.1334 0.0572008 0.365958 -2.28379e-10 -0.0617768 -1.52252e-09
515 1 5.64023 15.3515 9.11598 0.1334 0.0572008 0.365958 9.01821e-10 -0.0617768 2.10144e-11
490 1 7.25172 12.5603 6.83699 -0.244291 -0.129307 -2.26081 1.21802e-10 0.116278 2.43604e-10
492 1 8.86321 12.5603 11.395 0.1334 0.0572007 0.365958 4.87208e-10 -0.0617768 -0
512 1 8.05747 13.9559 9.11598 0.1334 0.0572008 0.365958 2.80145e-09 -0.0617768 5.48109e-10
514 1 7.25172 15.3515 6.83699 -0.244291 -0.129307 -2.26081 -1.28835e-09 0.116278 -1.33145e-10
516 1 8.86321 15.3515 11.395 0.1334 0.0572008 0.365958 2.29115e-09 -0.0617768 1.70523e-09
874 1 12.0862 12.5603 6.83699 -0.244291 -0.129307 -2.26081 -0 0.116278 4.87208e-10
875 1 10.4747 12.5603 9.11598 0.1334 0.0572007 0.365958 -1.21802e-10 -0.0617768 2.43604e-10