3072
 Atoms. Timestep: 55
Pt -0.00905508 -0.0104565 0
Pt 3.21544 -0.0104565 2.28148
Pt 1.60319 -0.0104565 4.56005
Pt 2.40932 1.38579 0
Pt 0.797069 1.38579 2.28148
Pt 4.02156 1.38579 4.56005
Pt -0.00905508 -0.0104565 6.83858
Pt 3.21544 -0.0104565 9.11713
Pt 1.60319 -0.0104565 11.3957
Pt 2.40932 1.38579 6.83858
Pt 0.797069 1.38579 9.11713
Pt 4.02156 1.38579 11.3957
Pt -0.00905508 -0.0104565 13.6742
Pt 3.21544 -0.0104565 15.9527
Pt 1.60319 -0.0104565 18.2312
Pt 2.40932 1.38579 13.6742
Pt 0.797069 1.38579 15.9527
Pt 4.02156 1.38579 18.2312
Pt -0.00905508 -0.0104565 20.5098
Pt 3.21544 -0.0104565 22.7883
Pt 1.60319 -0.0104565 25.0698
Pt 2.40932 1.38579 20.5098
Pt 0.797069 1.38579 22.7883
Pt 4.02156 1.38579 25.0698
Pt -0.00905508 2.78204 0
Pt 3.21544 2.78204 2.28148
Pt 1.60319 2.78204 4.56005
Pt 2.40932 4.17829 0
Pt 0.797069 4.17829 2.28148
Pt 4.02156 4.17829 4.56005
Pt -0.00905508 2.78204 6.83858
Pt 3.21544 2.78204 9.11713
Pt 1.60319 2.78204 11.3957
Pt 2.40932 4.17829 6.83858
Pt 0.797069 4.17829 9.11713
Pt 4.02156 4.17829 11.3957
Pt -0.00905508 2.78204 13.6742
Pt 3.21544 2.78204 15.9527
Pt 1.60319 2.78204 18.2312
Pt 2.40932 4.17829 13.6742
Pt 0.797069 4.17829 15.9527
Pt 4.02156 4.17829 18.2312
Pt -0.00905508 2.78204 20.5098
Pt 3.21544 2.78204 22.7883
Pt 1.60319 2.78204 25.0698
Pt 2.40932 4.17829 20.5098
Pt 0.797069 4.17829 22.7883
Pt 4.02156 4.17829 25.0698
Pt -0.00905508 5.57453 0
Pt 3.21544 5.57453 2.28148
Pt 1.60319 5.57453 4.56005
Pt 2.40932 6.97078 0
Pt 0.797069 6.97078 2.28148
Pt 4.02156 6.97078 4.56005
Pt -0.00905508 5.57453 6.83858
Pt 3.21544 5.57453 9.11713
Pt 1.60319 5.57453 11.3957
Pt 2.40932 6.97078 6.83858
Pt 0.797069 6.97078 9.11713
Pt 4.02156 6.97078 11.3957
Pt -0.00905508 5.57453 13.6742
Pt 3.21544 5.57453 15.9527
Pt 1.60319 5.57453 18.2312
Pt 2.40932 6.97078 13.6742
Pt 0.797069 6.97078 15.9527
Pt 4.02156 6.97078 18.2312
Pt -0.00905508 5.57453 20.5098
Pt 3.21544 5.57453 22.7883
Pt 1.60319 5.57453 25.0698
Pt 2.40932 6.97078 20.5098
Pt 0.797069 6.97078 22.7883
Pt 4.02156 6.97078 25.0698
Pt -0.00905508 8.36703 0
Pt 3.21544 8.36703 2.28148
Pt 1.60319 8.36703 4.56005
Pt 2.40932 9.76328 0
Pt 0.797069 9.76328 2.28148
Pt 4.02156 9.76328 4.56005
Pt -0.00905508 8.36703 6.83858
Pt 3.21544 8.36703 9.11713
Pt 1.60319 8.36703 11.3957
Pt 2.40932 9.76328 6.83858
Pt 0.797069 9.76328 9.11713
Pt 4.02156 9.76328 11.3957
Pt -0.00905508 8.36703 13.6742
Pt 3.21544 8.36703 15.9527
Pt 1.60319 8.36703 18.2312
Pt 2.40932 9.76328 13.6742
Pt 0.797069 9.76328 15.9527
Pt 4.02156 9.76328 18.2312
Pt -0.00905508 8.36703 20.5098
Pt 3.21544 8.36703 22.7883
Pt 1.60319 8.36703 25.0698
Pt 2.40932 9.76328 20.5098
Pt 0.797069 9.76328 22.7883
Pt 4.02156 9.76328 25.0698
Pt -0.00905508 11.1595 0
Pt 3.21544 11.1595 2.28148
Pt 1.60319 11.1595 4.56005
Pt 2.40932 12.5558 0
Pt 0.797069 12.5558 2.28148
Pt 4.02156 12.5558 4.56005
Pt -0.00905508 11.1595 6.83858
Pt 3.21544 11.1595 9.11713
Pt 1.60319 11.1595 11.3957
Pt 2.40932 12.5558 6.83858
Pt 0.797069 12.5558 9.11713
Pt 4.02156 12.5558 11.3957
Pt -0.00905508 11.1595 13.6742
Pt 3.21544 11.1595 15.9527
Pt 1.60319 11.1595 18.2312
Pt 2.40932 12.5558 13.6742
Pt 0.797069 12.5558 15.9527
Pt 4.02156 12.5558 18.2312
Pt -0.00905508 11.1595 20.5098
Pt 3.21544 11.1595 22.7883
Pt 1.60319 11.1595 25.0698
Pt 2.40932 12.5558 20.5098
Pt 0.797069 12.5558 22.7883
Pt 4.02156 12.5558 25.0698
Pt -0.00905508 13.952 0
Pt 3.21544 13.952 2.28148
Pt 1.60319 13.952 4.56005
Pt 2.40932 15.3483 0
Pt 0.797069 15.3483 2.28148
Pt 4.02156 15.3483 4.56005
Pt -0.00905508 13.952 6.83858
Pt 3.21544 13.952 9.11713
Pt 1.60319 13.952 11.3957
Pt 2.40932 15.3483 6.83858
Pt 0.797069 15.3483 9.11713
Pt 4.02156 15.3483 11.3957
Pt -0.00905508 13.952 13.6742
Pt 3.21544 13.952 15.9527
Pt 1.60319 13.952 18.2312
Pt 2.40932 15.3483 13.6742
Pt 0.797069 15.3483 15.9527
Pt 4.02156 15.3483 18.2312
Pt -0.00905508 13.952 20.5098
Pt 3.21544 13.952 22.7883
Pt 1.60319 13.952 25.0698
Pt 2.40932 15.3483 20.5098
Pt 0.797069 15.3483 22.7883
Pt 4.02156 15.3483 25.0698
Pt -0.00905508 16.7445 0
Pt 3.21544 16.7445 2.28148
Pt 1.60319 16.7445 4.56005
Pt 2.40932 18.1408 0
Pt 0.797069 18.1408 2.28148
Pt 4.02156 18.1408 4.56005
Pt -0.00905508 16.7445 6.83858
Pt 3.21544 16.7445 9.11713
Pt 1.60319 16.7445 11.3957
Pt 2.40932 18.1408 6.83858
Pt 0.797069 18.1408 9.11713
Pt 4.02156 18.1408 11.3957
Pt -0.00905508 16.7445 13.6742
Pt 3.21544 16.7445 15.9527
Pt 1.60319 16.7445 18.2312
Pt 2.40932 18.1408 13.6742
Pt 0.797069 18.1408 15.9527
Pt 4.02156 18.1408 18.2312
Pt -0.00905508 16.7445 20.5098
Pt 3.21544 16.7445 22.7883
Pt 1.60319 16.7445 25.0698
Pt 2.40932 18.1408 20.5098
Pt 0.797069 18.1408 22.7883
Pt 4.02156 18.1408 25.0698
Pt -0.00905508 19.537 0
Pt 3.21544 19.537 2.28148
Pt 1.60319 19.537 4.56005
Pt 2.40932 20.9333 0
Pt 0.797069 20.9333 2.28148
Pt 4.02156 20.9333 4.56005
Pt -0.00905508 19.537 6.83858
Pt 3.21544 19.537 9.11713
Pt 1.60319 19.537 11.3957
Pt 2.40932 20.9333 6.83858
Pt 0.797069 20.9333 9.11713
Pt 4.02156 20.9333 11.3957
Pt -0.00905508 19.537 13.6742
Pt 3.21544 19.537 15.9527
Pt 1.60319 19.537 18.2312
Pt 2.40932 20.9333 13.6742
Pt 0.797069 20.9333 15.9527
Pt 4.02156 20.9333 18.2312
Pt -0.00905508 19.537 20.5098
Pt 3.21544 19.537 22.7883
Pt 1.60319 19.537 25.0698
Pt 2.40932 20.9333 20.5098
Pt 0.797069 20.9333 22.7883
Pt 4.02156 20.9333 25.0698
Pt -0.00905508 22.3295 0
Pt 3.21544 22.3295 2.28148
Pt 1.60319 22.3295 4.56005
Pt 2.40932 23.7258 0
Pt 0.797069 23.7258 2.28148
Pt 4.02156 23.7258 4.56005
Pt -0.00905508 22.3295 6.83858
Pt 3.21544 22.3295 9.11713
Pt 1.60319 22.3295 11.3957
Pt 2.40932 23.7258 6.83858
Pt 0.797069 23.7258 9.11713
Pt 4.02156 23.7258 11.3957
Pt -0.00905508 22.3295 13.6742
Pt 3.21544 22.3295 15.9527
Pt 1.60319 22.3295 18.2312
Pt 2.40932 23.7258 13.6742
Pt 0.797069 23.7258 15.9527
Pt 4.02156 23.7258 18.2312
Pt -0.00905508 22.3295 20.5098
Pt 3.21544 22.3295 22.7883
Pt 1.60319 22.3295 25.0698
Pt 2.40932 23.7258 20.5098
Pt 0.797069 23.7258 22.7883
Pt 4.02156 23.7258 25.0698
Pt -0.00905508 25.122 0
Pt 3.21544 25.122 2.28148
Pt 1.60319 25.122 4.56005
Pt 2.40932 26.5182 0
Pt 0.797069 26.5182 2.28148
Pt 4.02156 26.5182 4.56005
Pt -0.00905508 25.122 6.83858
Pt 3.21544 25.122 9.11713
Pt 1.60319 25.122 11.3957
Pt 2.40932 26.5182 6.83858
Pt 0.797069 26.5182 9.11713
Pt 4.02156 26.5182 11.3957
Pt -0.00905508 25.122 13.6742
Pt 3.21544 25.122 15.9527
Pt 1.60319 25.122 18.2312
Pt 2.40932 26.5182 13.6742
Pt 0.797069 26.5182 15.9527
Pt 4.02156 26.5182 18.2312
Pt -0.00905508 25.122 20.5098
Pt 3.21544 25.122 22.7883
Pt 1.60319 25.122 25.0698
Pt 2.40932 26.5182 20.5098
Pt 0.797069 26.5182 22.7883
Pt 4.02156 26.5182 25.0698
Pt -0.00905508 27.9145 0
Pt 3.21544 27.9145 2.28148
Pt 1.60319 27.9145 4.56005
Pt 2.40932 29.3107 0
Pt 0.797069 29.3107 2.28148
Pt 4.02156 29.3107 4.56005
Pt -0.00905508 27.9145 6.83858
Pt 3.21544 27.9145 9.11713
Pt 1.60319 27.9145 11.3957
Pt 2.40932 29.3107 6.83858
Pt 0.797069 29.3107 9.11713
Pt 4.02156 29.3107 11.3957
Pt -0.00905508 27.9145 13.6742
Pt 3.21544 27.9145 15.9527
Pt 1.60319 27.9145 18.2312
Pt 2.40932 29.3107 13.6742
Pt 0.797069 29.3107 15.9527
Pt 4.02156 29.3107 18.2312
Pt -0.00905508 27.9145 20.5098
Pt 3.21544 27.9145 22.7883
Pt 1.60319 27.9145 25.0698
Pt 2.40932 29.3107 20.5098
Pt 0.797069 29.3107 22.7883
Pt 4.02156 29.3107 25.0698
Pt -0.00905508 30.707 0
Pt 3.21544 30.707 2.28148
Pt 1.60319 30.707 4.56005
Pt 2.40932 32.1032 0
Pt 0.797069 32.1032 2.28148
Pt 4.02156 32.1032 4.56005
Pt -0.00905508 30.707 6.83858
Pt 3.21544 30.707 9.11713
Pt 1.60319 30.707 11.3957
Pt 2.40932 32.1032 6.83858
Pt 0.797069 32.1032 9.11713
Pt 4.02156 32.1032 11.3957
Pt -0.00905508 30.707 13.6742
Pt 3.21544 30.707 15.9527
Pt 1.60319 30.707 18.2312
Pt 2.40932 32.1032 13.6742
Pt 0.797069 32.1032 15.9527
Pt 4.02156 32.1032 18.2312
Pt -0.00905508 30.707 20.5098
Pt 3.21544 30.707 22.7883
Pt 1.60319 30.707 25.0698
Pt 2.40932 32.1032 20.5098
Pt 0.797069 32.1032 22.7883
Pt 4.02156 32.1032 25.0698
Pt -0.00905508 33.4995 0
Pt 3.21544 33.4995 2.28148
Pt 1.60319 33.4995 4.56005
Pt 2.40932 34.8957 0
Pt 0.797069 34.8957 2.28148
Pt 4.02156 34.8957 4.56005
Pt -0.00905508 33.4995 6.83858
Pt 3.21544 33.4995 9.11713
Pt 1.60319 33.4995 11.3957
Pt 2.40932 34.8957 6.83858
Pt 0.797069 34.8957 9.11713
Pt 4.02156 34.8957 11.3957
Pt -0.00905508 33.4995 13.6742
Pt 3.21544 33.4995 15.9527
Pt 1.60319 33.4995 18.2312
Pt 2.40932 34.8957 13.6742
Pt 0.797069 34.8957 15.9527
Pt 4.02156 34.8957 18.2312
Pt -0.00905508 33.4995 20.5098
Pt 3.21544 33.4995 22.7883
Pt 1.60319 33.4995 25.0698
Pt 2.40932 34.8957 20.5098
Pt 0.797069 34.8957 22.7883
Pt 4.02156 34.8957 25.0698
Pt -0.00905508 36.292 0
Pt 3.21544 36.292 2.28148
Pt 1.60319 36.292 4.56005
Pt 2.40932 37.6882 0
Pt 0.797069 37.6882 2.28148
Pt 4.02156 37.6882 4.56005
Pt -0.00905508 36.292 6.83858
Pt 3.21544 36.292 9.11713
Pt 1.60319 36.292 11.3957
Pt 2.40932 37.6882 6.83858
Pt 0.797069 37.6882 9.11713
Pt 4.02156 37.6882 11.3957
Pt -0.00905508 36.292 13.6742
Pt 3.21544 36.292 15.9527
Pt 1.60319 36.292 18.2312
Pt 2.40932 37.6882 13.6742
Pt 0.797069 37.6882 15.9527
Pt 4.02156 37.6882 18.2312
Pt -0.00905508 36.292 20.5098
Pt 3.21544 36.292 22.7883
Pt 1.60319 36.292 25.0698
Pt 2.40932 37.6882 20.5098
Pt 0.797069 37.6882 22.7883
Pt 4.02156 37.6882 25.0698
Pt -0.00905508 39.0845 0
Pt 3.21544 39.0845 2.28148
Pt 1.60319 39.0845 4.56005
Pt 2.40932 40.4807 0
Pt 0.797069 40.4807 2.28148
Pt 4.02156 40.4807 4.56005
Pt -0.00905508 39.0845 6.83858
Pt 3.21544 39.0845 9.11713
Pt 1.60319 39.0845 11.3957
Pt 2.40932 40.4807 6.83858
Pt 0.797069 40.4807 9.11713
Pt 4.02156 40.4807 11.3957
Pt -0.00905508 39.0845 13.6742
Pt 3.21544 39.0845 15.9527
Pt 1.60319 39.0845 18.2312
Pt 2.40932 40.4807 13.6742
Pt 0.797069 40.4807 15.9527
Pt 4.02156 40.4807 18.2312
Pt -0.00905508 39.0845 20.5098
Pt 3.21544 39.0845 22.7883
Pt 1.60319 39.0845 25.0698
Pt 2.40932 40.4807 20.5098
Pt 0.797069 40.4807 22.7883
Pt 4.02156 40.4807 25.0698
Pt -0.00905508 41.877 0
Pt 3.21544 41.877 2.28148
Pt 1.60319 41.877 4.56005
Pt 2.40932 43.2732 0
Pt 0.797069 43.2732 2.28148
Pt 4.02156 43.2732 4.56005
Pt -0.00905508 41.877 6.83858
Pt 3.21544 41.877 9.11713
Pt 1.60319 41.877 11.3957
Pt 2.40932 43.2732 6.83858
Pt 0.797069 43.2732 9.11713
Pt 4.02156 43.2732 11.3957
Pt -0.00905508 41.877 13.6742
Pt 3.21544 41.877 15.9527
Pt 1.60319 41.877 18.2312
Pt 2.40932 43.2732 13.6742
Pt 0.797069 43.2732 15.9527
Pt 4.02156 43.2732 18.2312
Pt -0.00905508 41.877 20.5098
Pt 3.21544 41.877 22.7883
Pt 1.60319 41.877 25.0698
Pt 2.40932 43.2732 20.5098
Pt 0.797069 43.2732 22.7883
Pt 4.02156 43.2732 25.0698
Pt 4.82769 -0.0104565 0
Pt 8.05218 -0.0104565 2.28148
Pt 6.43994 -0.0104565 4.56005
Pt 7.24606 1.38579 0
Pt 5.63381 1.38579 2.28148
Pt 8.85831 1.38579 4.56005
Pt 4.82769 -0.0104565 6.83858
Pt 8.05218 -0.0104565 9.11713
Pt 6.43994 -0.0104565 11.3957
Pt 7.24606 1.38579 6.83858
Pt 5.63381 1.38579 9.11713
Pt 8.85831 1.38579 11.3957
Pt 4.82769 -0.0104565 13.6742
Pt 8.05218 -0.0104565 15.9527
Pt 6.43994 -0.0104565 18.2312
Pt 7.24606 1.38579 13.6742
Pt 5.63381 1.38579 15.9527
Pt 8.85831 1.38579 18.2312
Pt 4.82769 -0.0104565 20.5098
Pt 8.05218 -0.0104565 22.7883
Pt 6.43994 -0.0104565 25.0698
Pt 7.24606 1.38579 20.5098
Pt 5.63381 1.38579 22.7883
Pt 8.85831 1.38579 25.0698
Pt 4.82769 2.78204 0
Pt 8.05218 2.78204 2.28148
Pt 6.43994 2.78204 4.56005
Pt 7.24606 4.17829 0
Pt 5.63381 4.17829 2.28148
Pt 8.85831 4.17829 4.56005
Pt 4.82769 2.78204 6.83858
Pt 8.05218 2.78204 9.11713
Pt 6.43994 2.78204 11.3957
Pt 7.24606 4.17829 6.83858
Pt 5.63381 4.17829 9.11713
Pt 8.85831 4.17829 11.3957
Pt 4.82769 2.78204 13.6742
Pt 8.05218 2.78204 15.9527
Pt 6.43994 2.78204 18.2312
Pt 7.24606 4.17829 13.6742
Pt 5.63381 4.17829 15.9527
Pt 8.85831 4.17829 18.2312
Pt 4.82769 2.78204 20.5098
Pt 8.05218 2.78204 22.7883
Pt 6.43994 2.78204 25.0698
Pt 7.24606 4.17829 20.5098
Pt 5.63381 4.17829 22.7883
Pt 8.85831 4.17829 25.0698
Pt 4.82769 5.57453 0
Pt 8.05218 5.57453 2.28148
Pt 6.43994 5.57453 4.56005
Pt 7.24606 6.97078 0
Pt 5.63381 6.97078 2.28148
Pt 8.85831 6.97078 4.56005
Pt 4.82769 5.57453 6.83858
Pt 8.05218 5.57453 9.11713
Pt 6.43994 5.57453 11.3957
Pt 7.24606 6.97078 6.83858
Pt 5.63381 6.97078 9.11713
Pt 8.85831 6.97078 11.3957
Pt 4.82769 5.57453 13.6742
Pt 8.05218 5.57453 15.9527
Pt 6.43994 5.57453 18.2312
Pt 7.24606 6.97078 13.6742
Pt 5.63381 6.97078 15.9527
Pt 8.85831 6.97078 18.2312
Pt 4.82769 5.57453 20.5098
Pt 8.05218 5.57453 22.7883
Pt 6.43994 5.57453 25.0698
Pt 7.24606 6.97078 20.5098
Pt 5.63381 6.97078 22.7883
Pt 8.85831 6.97078 25.0698
Pt 4.82769 8.36703 0
Pt 8.05218 8.36703 2.28148
Pt 6.43994 8.36703 4.56005
Pt 7.24606 9.76328 0
Pt 5.63381 9.76328 2.28148
Pt 8.85831 9.76328 4.56005
Pt 4.82769 8.36703 6.83858
Pt 8.05218 8.36703 9.11713
Pt 6.43994 8.36703 11.3957
Pt 7.24606 9.76328 6.83858
Pt 5.63381 9.76328 9.11713
Pt 8.85831 9.76328 11.3957
Pt 4.82769 8.36703 13.6742
Pt 8.05218 8.36703 15.9527
Pt 6.43994 8.36703 18.2312
Pt 7.24606 9.76328 13.6742
Pt 5.63381 9.76328 15.9527
Pt 8.85831 9.76328 18.2312
Pt 4.82769 8.36703 20.5098
Pt 8.05218 8.36703 22.7883
Pt 6.43994 8.36703 25.0698
Pt 7.24606 9.76328 20.5098
Pt 5.63381 9.76328 22.7883
Pt 8.85831 9.76328 25.0698
Pt 4.82769 11.1595 0
Pt 8.05218 11.1595 2.28148
Pt 6.43994 11.1595 4.56005
Pt 7.24606 12.5558 0
Pt 5.63381 12.5558 2.28148
Pt 8.85831 12.5558 4.56005
Pt 4.82769 11.1595 6.83858
Pt 8.05218 11.1595 9.11713
Pt 6.43994 11.1595 11.3957
Pt 7.24606 12.5558 6.83858
Pt 5.63381 12.5558 9.11713
Pt 8.85831 12.5558 11.3957
Pt 4.82769 11.1595 13.6742
Pt 8.05218 11.1595 15.9527
Pt 6.43994 11.1595 18.2312
Pt 7.24606 12.5558 13.6742
Pt 5.63381 12.5558 15.9527
Pt 8.85831 12.5558 18.2312
Pt 4.82769 11.1595 20.5098
Pt 8.05218 11.1595 22.7883
Pt 6.43994 11.1595 25.0698
Pt 7.24606 12.5558 20.5098
Pt 5.63381 12.5558 22.7883
Pt 8.85831 12.5558 25.0698
Pt 4.82769 13.952 0
Pt 8.05218 13.952 2.28148
Pt 6.43994 13.952 4.56005
Pt 7.24606 15.3483 0
Pt 5.63381 15.3483 2.28148
Pt 8.85831 15.3483 4.56005
Pt 4.82769 13.952 6.83858
Pt 8.05218 13.952 9.11713
Pt 6.43994 13.952 11.3957
Pt 7.24606 15.3483 6.83858
Pt 5.63381 15.3483 9.11713
Pt 8.85831 15.3483 11.3957
Pt 4.82769 13.952 13.6742
Pt 8.05218 13.952 15.9527
Pt 6.43994 13.952 18.2312
Pt 7.24606 15.3483 13.6742
Pt 5.63381 15.3483 15.9527
Pt 8.85831 15.3483 18.2312
Pt 4.82769 13.952 20.5098
Pt 8.05218 13.952 22.7883
Pt 6.43994 13.952 25.0698
Pt 7.24606 15.3483 20.5098
Pt 5.63381 15.3483 22.7883
Pt 8.85831 15.3483 25.0698
Pt 4.82769 16.7445 0
Pt 8.05218 16.7445 2.28148
Pt 6.43994 16.7445 4.56005
Pt 7.24606 18.1408 0
Pt 5.63381 18.1408 2.28148
Pt 8.85831 18.1408 4.56005
Pt 4.82769 16.7445 6.83858
Pt 8.05218 16.7445 9.11713
Pt 6.43994 16.7445 11.3957
Pt 7.24606 18.1408 6.83858
Pt 5.63381 18.1408 9.11713
Pt 8.85831 18.1408 11.3957
Pt 4.82769 16.7445 13.6742
Pt 8.05218 16.7445 15.9527
Pt 6.43994 16.7445 18.2312
Pt 7.24606 18.1408 13.6742
Pt 5.63381 18.1408 15.9527
Pt 8.85831 18.1408 18.2312
Pt 4.82769 16.7445 20.5098
Pt 8.05218 16.7445 22.7883
Pt 6.43994 16.7445 25.0698
Pt 7.24606 18.1408 20.5098
Pt 5.63381 18.1408 22.7883
Pt 8.85831 18.1408 25.0698
Pt 4.82769 19.537 0
Pt 8.05218 19.537 2.28148
Pt 6.43994 19.537 4.56005
Pt 7.24606 20.9333 0
Pt 5.63381 20.9333 2.28148
Pt 8.85831 20.9333 4.56005
Pt 4.82769 19.537 6.83858
Pt 8.05218 19.537 9.11713
Pt 6.43994 19.537 11.3957
Pt 7.24606 20.9333 6.83858
Pt 5.63381 20.9333 9.11713
Pt 8.85831 20.9333 11.3957
Pt 4.82769 19.537 13.6742
Pt 8.05218 19.537 15.9527
Pt 6.43994 19.537 18.2312
Pt 7.24606 20.9333 13.6742
Pt 5.63381 20.9333 15.9527
Pt 8.85831 20.9333 18.2312
Pt 4.82769 19.537 20.5098
Pt 8.05218 19.537 22.7883
Pt 6.43994 19.537 25.0698
Pt 7.24606 20.9333 20.5098
Pt 5.63381 20.9333 22.7883
Pt 8.85831 20.9333 25.0698
Pt 4.82769 22.3295 0
Pt 8.05218 22.3295 2.28148
Pt 6.43994 22.3295 4.56005
Pt 7.24606 23.7258 0
Pt 5.63381 23.7258 2.28148
Pt 8.85831 23.7258 4.56005
Pt 4.82769 22.3295 6.83858
Pt 8.05218 22.3295 9.11713
Pt 6.43994 22.3295 11.3957
Pt 7.24606 23.7258 6.83858
Pt 5.63381 23.7258 9.11713
Pt 8.85831 23.7258 11.3957
Pt 4.82769 22.3295 13.6742
Pt 8.05218 22.3295 15.9527
Pt 6.43994 22.3295 18.2312
Pt 7.24606 23.7258 13.6742
Pt 5.63381 23.7258 15.9527
Pt 8.85831 23.7258 18.2312
Pt 4.82769 22.3295 20.5098
Pt 8.05218 22.3295 22.7883
Pt 6.43994 22.3295 25.0698
Pt 7.24606 23.7258 20.5098
Pt 5.63381 23.7258 22.7883
Pt 8.85831 23.7258 25.0698
Pt 4.82769 25.122 0
Pt 8.05218 25.122 2.28148
Pt 6.43994 25.122 4.56005
Pt 7.24606 26.5182 0
Pt 5.63381 26.5182 2.28148
Pt 8.85831 26.5182 4.56005
Pt 4.82769 25.122 6.83858
Pt 8.05218 25.122 9.11713
Pt 6.43994 25.122 11.3957
Pt 7.24606 26.5182 6.83858
Pt 5.63381 26.5182 9.11713
Pt 8.85831 26.5182 11.3957
Pt 4.82769 25.122 13.6742
Pt 8.05218 25.122 15.9527
Pt 6.43994 25.122 18.2312
Pt 7.24606 26.5182 13.6742
Pt 5.63381 26.5182 15.9527
Pt 8.85831 26.5182 18.2312
Pt 4.82769 25.122 20.5098
Pt 8.05218 25.122 22.7883
Pt 6.43994 25.122 25.0698
Pt 7.24606 26.5182 20.5098
Pt 5.63381 26.5182 22.7883
Pt 8.85831 26.5182 25.0698
Pt 4.82769 27.9145 0
Pt 8.05218 27.9145 2.28148
Pt 6.43994 27.9145 4.56005
Pt 7.24606 29.3107 0
Pt 5.63381 29.3107 2.28148
Pt 8.85831 29.3107 4.56005
Pt 4.82769 27.9145 6.83858
Pt 8.05218 27.9145 9.11713
Pt 6.43994 27.9145 11.3957
Pt 7.24606 29.3107 6.83858
Pt 5.63381 29.3107 9.11713
Pt 8.85831 29.3107 11.3957
Pt 4.82769 27.9145 13.6742
Pt 8.05218 27.9145 15.9527
Pt 6.43994 27.9145 18.2312
Pt 7.24606 29.3107 13.6742
Pt 5.63381 29.3107 15.9527
Pt 8.85831 29.3107 18.2312
Pt 4.82769 27.9145 20.5098
Pt 8.05218 27.9145 22.7883
Pt 6.43994 27.9145 25.0698
Pt 7.24606 29.3107 20.5098
Pt 5.63381 29.3107 22.7883
Pt 8.85831 29.3107 25.0698
Pt 4.82769 30.707 0
Pt 8.05218 30.707 2.28148
Pt 6.43994 30.707 4.56005
Pt 7.24606 32.1032 0
Pt 5.63381 32.1032 2.28148
Pt 8.85831 32.1032 4.56005
Pt 4.82769 30.707 6.83858
Pt 8.05218 30.707 9.11713
Pt 6.43994 30.707 11.3957
Pt 7.24606 32.1032 6.83858
Pt 5.63381 32.1032 9.11713
Pt 8.85831 32.1032 11.3957
Pt 4.82769 30.707 13.6742
Pt 8.05218 30.707 15.9527
Pt 6.43994 30.707 18.2312
Pt 7.24606 32.1032 13.6742
Pt 5.63381 32.1032 15.9527
Pt 8.85831 32.1032 18.2312
Pt 4.82769 30.707 20.5098
Pt 8.05218 30.707 22.7883
Pt 6.43994 30.707 25.0698
Pt 7.24606 32.1032 20.5098
Pt 5.63381 32.1032 22.7883
Pt 8.85831 32.1032 25.0698
Pt 4.82769 33.4995 0
Pt 8.05218 33.4995 2.28148
Pt 6.43994 33.4995 4.56005
Pt 7.24606 34.8957 0
Pt 5.63381 34.8957 2.28148
Pt 8.85831 34.8957 4.56005
Pt 4.82769 33.4995 6.83858
Pt 8.05218 33.4995 9.11713
Pt 6.43994 33.4995 11.3957
Pt 7.24606 34.8957 6.83858
Pt 5.63381 34.8957 9.11713
Pt 8.85831 34.8957 11.3957
Pt 4.82769 33.4995 13.6742
Pt 8.05218 33.4995 15.9527
Pt 6.43994 33.4995 18.2312
Pt 7.24606 34.8957 13.6742
Pt 5.63381 34.8957 15.9527
Pt 8.85831 34.8957 18.2312
Pt 4.82769 33.4995 20.5098
Pt 8.05218 33.4995 22.7883
Pt 6.43994 33.4995 25.0698
Pt 7.24606 34.8957 20.5098
Pt 5.63381 34.8957 22.7883
Pt 8.85831 34.8957 25.0698
Pt 4.82769 36.292 0
Pt 8.05218 36.292 2.28148
Pt 6.43994 36.292 4.56005
Pt 7.24606 37.6882 0
Pt 5.63381 37.6882 2.28148
Pt 8.85831 37.6882 4.56005
Pt 4.82769 36.292 6.83858
Pt 8.05218 36.292 9.11713
Pt 6.43994 36.292 11.3957
Pt 7.24606 37.6882 6.83858
Pt 5.63381 37.6882 9.11713
Pt 8.85831 37.6882 11.3957
Pt 4.82769 36.292 13.6742
Pt 8.05218 36.292 15.9527
Pt 6.43994 36.292 18.2312
Pt 7.24606 37.6882 13.6742
Pt 5.63381 37.6882 15.9527
Pt 8.85831 37.6882 18.2312
Pt 4.82769 36.292 20.5098
Pt 8.05218 36.292 22.7883
Pt 6.43994 36.292 25.0698
Pt 7.24606 37.6882 20.5098
Pt 5.63381 37.6882 22.7883
Pt 8.85831 37.6882 25.0698
Pt 4.82769 39.0845 0
Pt 8.05218 39.0845 2.28148
Pt 6.43994 39.0845 4.56005
Pt 7.24606 40.4807 0
Pt 5.63381 40.4807 2.28148
Pt 8.85831 40.4807 4.56005
Pt 4.82769 39.0845 6.83858
Pt 8.05218 39.0845 9.11713
Pt 6.43994 39.0845 11.3957
Pt 7.24606 40.4807 6.83858
Pt 5.63381 40.4807 9.11713
Pt 8.85831 40.4807 11.3957
Pt 4.82769 39.0845 13.6742
Pt 8.05218 39.0845 15.9527
Pt 6.43994 39.0845 18.2312
Pt 7.24606 40.4807 13.6742
Pt 5.63381 40.4807 15.9527
Pt 8.85831 40.4807 18.2312
Pt 4.82769 39.0845 20.5098
Pt 8.05218 39.0845 22.7883
Pt 6.43994 39.0845 25.0698
Pt 7.24606 40.4807 20.5098
Pt 5.63381 40.4807 22.7883
Pt 8.85831 40.4807 25.0698
Pt 4.82769 41.877 0
Pt 8.05218 41.877 2.28148
Pt 6.43994 41.877 4.56005
Pt 7.24606 43.2732 0
Pt 5.63381 43.2732 2.28148
Pt 8.85831 43.2732 4.56005
Pt 4.82769 41.877 6.83858
Pt 8.05218 41.877 9.11713
Pt 6.43994 41.877 11.3957
Pt 7.24606 43.2732 6.83858
Pt 5.63381 43.2732 9.11713
Pt 8.85831 43.2732 11.3957
Pt 4.82769 41.877 13.6742
Pt 8.05218 41.877 15.9527
Pt 6.43994 41.877 18.2312
Pt 7.24606 43.2732 13.6742
Pt 5.63381 43.2732 15.9527
Pt 8.85831 43.2732 18.2312
Pt 4.82769 41.877 20.5098
Pt 8.05218 41.877 22.7883
Pt 6.43994 41.877 25.0698
Pt 7.24606 43.2732 20.5098
Pt 5.63381 43.2732 22.7883
Pt 8.85831 43.2732 25.0698
Pt 9.66443 -0.0104565 0
Pt 12.8889 -0.0104565 2.28148
Pt 11.2767 -0.0104565 4.56005
Pt 12.0828 1.38579 0
Pt 10.4706 1.38579 2.28148
Pt 13.6951 1.38579 4.56005
Pt 9.66443 -0.0104565 6.83858
Pt 12.8889 -0.0104565 9.11713
Pt 11.2767 -0.0104565 11.3957
Pt 12.0828 1.38579 6.83858
Pt 10.4706 1.38579 9.11713
Pt 13.6951 1.38579 11.3957
Pt 9.66443 -0.0104565 13.6742
Pt 12.8889 -0.0104565 15.9527
Pt 11.2767 -0.0104565 18.2312
Pt 12.0828 1.38579 13.6742
Pt 10.4706 1.38579 15.9527
Pt 13.6951 1.38579 18.2312
Pt 9.66443 -0.0104565 20.5098
Pt 12.8889 -0.0104565 22.7883
Pt 11.2767 -0.0104565 25.0698
Pt 12.0828 1.38579 20.5098
Pt 10.4706 1.38579 22.7883
Pt 13.6951 1.38579 25.0698
Pt 9.66443 2.78204 0
Pt 12.8889 2.78204 2.28148
Pt 11.2767 2.78204 4.56005
Pt 12.0828 4.17829 0
Pt 10.4706 4.17829 2.28148
Pt 13.6951 4.17829 4.56005
Pt 9.66443 2.78204 6.83858
Pt 12.8889 2.78204 9.11713
Pt 11.2767 2.78204 11.3957
Pt 12.0828 4.17829 6.83858
Pt 10.4706 4.17829 9.11713
Pt 13.6951 4.17829 11.3957
Pt 9.66443 2.78204 13.6742
Pt 12.8889 2.78204 15.9527
Pt 11.2767 2.78204 18.2312
Pt 12.0828 4.17829 13.6742
Pt 10.4706 4.17829 15.9527
Pt 13.6951 4.17829 18.2312
Pt 9.66443 2.78204 20.5098
Pt 12.8889 2.78204 22.7883
Pt 11.2767 2.78204 25.0698
Pt 12.0828 4.17829 20.5098
Pt 10.4706 4.17829 22.7883
Pt 13.6951 4.17829 25.0698
Pt 9.66443 5.57453 0
Pt 12.8889 5.57453 2.28148
Pt 11.2767 5.57453 4.56005
Pt 12.0828 6.97078 0
Pt 10.4706 6.97078 2.28148
Pt 13.6951 6.97078 4.56005
Pt 9.66443 5.57453 6.83858
Pt 12.8889 5.57453 9.11713
Pt 11.2767 5.57453 11.3957
Pt 12.0828 6.97078 6.83858
Pt 10.4706 6.97078 9.11713
Pt 13.6951 6.97078 11.3957
Pt 9.66443 5.57453 13.6742
Pt 12.8889 5.57453 15.9527
Pt 11.2767 5.57453 18.2312
Pt 12.0828 6.97078 13.6742
Pt 10.4706 6.97078 15.9527
Pt 13.6951 6.97078 18.2312
Pt 9.66443 5.57453 20.5098
Pt 12.8889 5.57453 22.7883
Pt 11.2767 5.57453 25.0698
Pt 12.0828 6.97078 20.5098
Pt 10.4706 6.97078 22.7883
Pt 13.6951 6.97078 25.0698
Pt 9.66443 8.36703 0
Pt 12.8889 8.36703 2.28148
Pt 11.2767 8.36703 4.56005
Pt 12.0828 9.76328 0
Pt 10.4706 9.76328 2.28148
Pt 13.6951 9.76328 4.56005
Pt 9.66443 8.36703 6.83858
Pt 12.8889 8.36703 9.11713
Pt 11.2767 8.36703 11.3957
Pt 12.0828 9.76328 6.83858
Pt 10.4706 9.76328 9.11713
Pt 13.6951 9.76328 11.3957
Pt 9.66443 8.36703 13.6742
Pt 12.8889 8.36703 15.9527
Pt 11.2767 8.36703 18.2312
Pt 12.0828 9.76328 13.6742
Pt 10.4706 9.76328 15.9527
Pt 13.6951 9.76328 18.2312
Pt 9.66443 8.36703 20.5098
Pt 12.8889 8.36703 22.7883
Pt 11.2767 8.36703 25.0698
Pt 12.0828 9.76328 20.5098
Pt 10.4706 9.76328 22.7883
Pt 13.6951 9.76328 25.0698
Pt 9.66443 11.1595 0
Pt 12.8889 11.1595 2.28148
Pt 11.2767 11.1595 4.56005
Pt 12.0828 12.5558 0
Pt 10.4706 12.5558 2.28148
Pt 13.6951 12.5558 4.56005
Pt 9.66443 11.1595 6.83858
Pt 12.8889 11.1595 9.11713
Pt 11.2767 11.1595 11.3957
Pt 12.0828 12.5558 6.83858
Pt 10.4706 12.5558 9.11713
Pt 13.6951 12.5558 11.3957
Pt 9.66443 11.1595 13.6742
Pt 12.8889 11.1595 15.9527
Pt 11.2767 11.1595 18.2312
Pt 12.0828 12.5558 13.6742
Pt 10.4706 12.5558 15.9527
Pt 13.6951 12.5558 18.2312
Pt 9.66443 11.1595 20.5098
Pt 12.8889 11.1595 22.7883
Pt 11.2767 11.1595 25.0698
Pt 12.0828 12.5558 20.5098
Pt 10.4706 12.5558 22.7883
Pt 13.6951 12.5558 25.0698
Pt 9.66443 13.952 0
Pt 12.8889 13.952 2.28148
Pt 11.2767 13.952 4.56005
Pt 12.0828 15.3483 0
Pt 10.4706 15.3483 2.28148
Pt 13.6951 15.3483 4.56005
Pt 9.66443 13.952 6.83858
Pt 12.8889 13.952 9.11713
Pt 11.2767 13.952 11.3957
Pt 12.0828 15.3483 6.83858
Pt 10.4706 15.3483 9.11713
Pt 13.6951 15.3483 11.3957
Pt 9.66443 13.952 13.6742
Pt 12.8889 13.952 15.9527
Pt 11.2767 13.952 18.2312
Pt 12.0828 15.3483 13.6742
Pt 10.4706 15.3483 15.9527
Pt 13.6951 15.3483 18.2312
Pt 9.66443 13.952 20.5098
Pt 12.8889 13.952 22.7883
Pt 11.2767 13.952 25.0698
Pt 12.0828 15.3483 20.5098
Pt 10.4706 15.3483 22.7883
Pt 13.6951 15.3483 25.0698
Pt 9.66443 16.7445 0
Pt 12.8889 16.7445 2.28148
Pt 11.2767 16.7445 4.56005
Pt 12.0828 18.1408 0
Pt 10.4706 18.1408 2.28148
Pt 13.6951 18.1408 4.56005
Pt 9.66443 16.7445 6.83858
Pt 12.8889 16.7445 9.11713
Pt 11.2767 16.7445 11.3957
Pt 12.0828 18.1408 6.83858
Pt 10.4706 18.1408 9.11713
Pt 13.6951 18.1408 11.3957
Pt 9.66443 16.7445 13.6742
Pt 12.8889 16.7445 15.9527
Pt 11.2767 16.7445 18.2312
Pt 12.0828 18.1408 13.6742
Pt 10.4706 18.1408 15.9527
Pt 13.6951 18.1408 18.2312
Pt 9.66443 16.7445 20.5098
Pt 12.8889 16.7445 22.7883
Pt 11.2767 16.7445 25.0698
Pt 12.0828 18.1408 20.5098
Pt 10.4706 18.1408 22.7883
Pt 13.6951 18.1408 25.0698
Pt 9.66443 19.537 0
Pt 12.8889 19.537 2.28148
Pt 11.2767 19.537 4.56005
Pt 12.0828 20.9333 0
Pt 10.4706 20.9333 2.28148
Pt 13.6951 20.9333 4.56005
Pt 9.66443 19.537 6.83858
Pt 12.8889 19.537 9.11713
Pt 11.2767 19.537 11.3957
Pt 12.0828 20.9333 6.83858
Pt 10.4706 20.9333 9.11713
Pt 13.6951 20.9333 11.3957
Pt 9.66443 19.537 13.6742
Pt 12.8889 19.537 15.9527
Pt 11.2767 19.537 18.2312
Pt 12.0828 20.9333 13.6742
Pt 10.4706 20.9333 15.9527
Pt 13.6951 20.9333 18.2312
Pt 9.66443 19.537 20.5098
Pt 12.8889 19.537 22.7883
Pt 11.2767 19.537 25.0698
Pt 12.0828 20.9333 20.5098
Pt 10.4706 20.9333 22.7883
Pt 13.6951 20.9333 25.0698
Pt 9.66443 22.3295 0
Pt 12.8889 22.3295 2.28148
Pt 11.2767 22.3295 4.56005
Pt 12.0828 23.7258 0
Pt 10.4706 23.7258 2.28148
Pt 13.6951 23.7258 4.56005
Pt 9.66443 22.3295 6.83858
Pt 12.8889 22.3295 9.11713
Pt 11.2767 22.3295 11.3957
Pt 12.0828 23.7258 6.83858
Pt 10.4706 23.7258 9.11713
Pt 13.6951 23.7258 11.3957
Pt 9.66443 22.3295 13.6742
Pt 12.8889 22.3295 15.9527
Pt 11.2767 22.3295 18.2312
Pt 12.0828 23.7258 13.6742
Pt 10.4706 23.7258 15.9527
Pt 13.6951 23.7258 18.2312
Pt 9.66443 22.3295 20.5098
Pt 12.8889 22.3295 22.7883
Pt 11.2767 22.3295 25.0698
Pt 12.0828 23.7258 20.5098
Pt 10.4706 23.7258 22.7883
Pt 13.6951 23.7258 25.0698
Pt 9.66443 25.122 0
Pt 12.8889 25.122 2.28148
Pt 11.2767 25.122 4.56005
Pt 12.0828 26.5182 0
Pt 10.4706 26.5182 2.28148
Pt 13.6951 26.5182 4.56005
Pt 9.66443 25.122 6.83858
Pt 12.8889 25.122 9.11713
Pt 11.2767 25.122 11.3957
Pt 12.0828 26.5182 6.83858
Pt 10.4706 26.5182 9.11713
Pt 13.6951 26.5182 11.3957
Pt 9.66443 25.122 13.6742
Pt 12.8889 25.122 15.9527
Pt 11.2767 25.122 18.2312
Pt 12.0828 26.5182 13.6742
Pt 10.4706 26.5182 15.9527
Pt 13.6951 26.5182 18.2312
Pt 9.66443 25.122 20.5098
Pt 12.8889 25.122 22.7883
Pt 11.2767 25.122 25.0698
Pt 12.0828 26.5182 20.5098
Pt 10.4706 26.5182 22.7883
Pt 13.6951 26.5182 25.0698
Pt 9.66443 27.9145 0
Pt 12.8889 27.9145 2.28148
Pt 11.2767 27.9145 4.56005
Pt 12.0828 29.3107 0
Pt 10.4706 29.3107 2.28148
Pt 13.6951 29.3107 4.56005
Pt 9.66443 27.9145 6.83858
Pt 12.8889 27.9145 9.11713
Pt 11.2767 27.9145 11.3957
Pt 12.0828 29.3107 6.83858
Pt 10.4706 29.3107 9.11713
Pt 13.6951 29.3107 11.3957
Pt 9.66443 27.9145 13.6742
Pt 12.8889 27.9145 15.9527
Pt 11.2767 27.9145 18.2312
Pt 12.0828 29.3107 13.6742
Pt 10.4706 29.3107 15.9527
Pt 13.6951 29.3107 18.2312
Pt 9.66443 27.9145 20.5098
Pt 12.8889 27.9145 22.7883
Pt 11.2767 27.9145 25.0698
Pt 12.0828 29.3107 20.5098
Pt 10.4706 29.3107 22.7883
Pt 13.6951 29.3107 25.0698
Pt 9.66443 30.707 0
Pt 12.8889 30.707 2.28148
Pt 11.2767 30.707 4.56005
Pt 12.0828 32.1032 0
Pt 10.4706 32.1032 2.28148
Pt 13.6951 32.1032 4.56005
Pt 9.66443 30.707 6.83858
Pt 12.8889 30.707 9.11713
Pt 11.2767 30.707 11.3957
Pt 12.0828 32.1032 6.83858
Pt 10.4706 32.1032 9.11713
Pt 13.6951 32.1032 11.3957
Pt 9.66443 30.707 13.6742
Pt 12.8889 30.707 15.9527
Pt 11.2767 30.707 18.2312
Pt 12.0828 32.1032 13.6742
Pt 10.4706 32.1032 15.9527
Pt 13.6951 32.1032 18.2312
Pt 9.66443 30.707 20.5098
Pt 12.8889 30.707 22.7883
Pt 11.2767 30.707 25.0698
Pt 12.0828 32.1032 20.5098
Pt 10.4706 32.1032 22.7883
Pt 13.6951 32.1032 25.0698
Pt 9.66443 33.4995 0
Pt 12.8889 33.4995 2.28148
Pt 11.2767 33.4995 4.56005
Pt 12.0828 34.8957 0
Pt 10.4706 34.8957 2.28148
Pt 13.6951 34.8957 4.56005
Pt 9.66443 33.4995 6.83858
Pt 12.8889 33.4995 9.11713
Pt 11.2767 33.4995 11.3957
Pt 12.0828 34.8957 6.83858
Pt 10.4706 34.8957 9.11713
Pt 13.6951 34.8957 11.3957
Pt 9.66443 33.4995 13.6742
Pt 12.8889 33.4995 15.9527
Pt 11.2767 33.4995 18.2312
Pt 12.0828 34.8957 13.6742
Pt 10.4706 34.8957 15.9527
Pt 13.6951 34.8957 18.2312
Pt 9.66443 33.4995 20.5098
Pt 12.8889 33.4995 22.7883
Pt 11.2767 33.4995 25.0698
Pt 12.0828 34.8957 20.5098
Pt 10.4706 34.8957 22.7883
Pt 13.6951 34.8957 25.0698
Pt 9.66443 36.292 0
Pt 12.8889 36.292 2.28148
Pt 11.2767 36.292 4.56005
Pt 12.0828 37.6882 0
Pt 10.4706 37.6882 2.28148
Pt 13.6951 37.6882 4.56005
Pt 9.66443 36.292 6.83858
Pt 12.8889 36.292 9.11713
Pt 11.2767 36.292 11.3957
Pt 12.0828 37.6882 6.83858
Pt 10.4706 37.6882 9.11713
Pt 13.6951 37.6882 11.3957
Pt 9.66443 36.292 13.6742
Pt 12.8889 36.292 15.9527
Pt 11.2767 36.292 18.2312
Pt 12.0828 37.6882 13.6742
Pt 10.4706 37.6882 15.9527
Pt 13.6951 37.6882 18.2312
Pt 9.66443 36.292 20.5098
Pt 12.8889 36.292 22.7883
Pt 11.2767 36.292 25.0698
Pt 12.0828 37.6882 20.5098
Pt 10.4706 37.6882 22.7883
Pt 13.6951 37.6882 25.0698
Pt 9.66443 39.0845 0
Pt 12.8889 39.0845 2.28148
Pt 11.2767 39.0845 4.56005
Pt 12.0828 40.4807 0
Pt 10.4706 40.4807 2.28148
Pt 13.6951 40.4807 4.56005
Pt 9.66443 39.0845 6.83858
Pt 12.8889 39.0845 9.11713
Pt 11.2767 39.0845 11.3957
Pt 12.0828 40.4807 6.83858
Pt 10.4706 40.4807 9.11713
Pt 13.6951 40.4807 11.3957
Pt 9.66443 39.0845 13.6742
Pt 12.8889 39.0845 15.9527
Pt 11.2767 39.0845 18.2312
Pt 12.0828 40.4807 13.6742
Pt 10.4706 40.4807 15.9527
Pt 13.6951 40.4807 18.2312