  66  66   0   0
  0.4130481E+02  0.9717792E-09  0.1122114E-08  0.2500000E-08  0.1500000E-16
  1.000000000000000E-004
  CAR 
 Pt111 O2 adsorption system              
      6.61367947    -20.68250754  301      0.31891648      1.00000000
    -20.683  0.0000E+00  0.0000E+00
    -20.592  0.0000E+00  0.0000E+00
    -20.501  0.0000E+00  0.0000E+00
    -20.410  0.0000E+00  0.0000E+00
    -20.319  0.0000E+00  0.0000E+00
    -20.228  0.0000E+00  0.0000E+00
    -20.137  0.0000E+00  0.0000E+00
    -20.046  0.0000E+00  0.0000E+00
    -19.955  0.5419E-14  0.4931E-15
    -19.864  0.3226E-10  0.2935E-11
    -19.773  0.3817E-07  0.3476E-08
    -19.682  0.9149E-05  0.8359E-06
    -19.591  0.4580E-03  0.4251E-04
    -19.500  0.5007E-02  0.4980E-03
    -19.409  0.1256E-01  0.1641E-02
    -19.318  0.7431E-02  0.2317E-02
    -19.227  0.1020E-02  0.2410E-02
    -19.136  0.3102E-04  0.2413E-02
    -19.045  0.1991E-06  0.2413E-02
    -18.954  0.2606E-09  0.2413E-02
    -18.863  0.6813E-13  0.2413E-02
    -18.772  0.2944E-17  0.2413E-02
    -18.681  0.0000E+00  0.2413E-02
    -18.590  0.0000E+00  0.2413E-02
    -18.499  0.0000E+00  0.2413E-02
    -18.408  0.0000E+00  0.2413E-02
    -18.317  0.0000E+00  0.2413E-02
    -18.226  0.0000E+00  0.2413E-02
    -18.135  0.0000E+00  0.2413E-02
    -18.044  0.0000E+00  0.2413E-02
    -17.953  0.0000E+00  0.2413E-02
    -17.862  0.0000E+00  0.2413E-02
    -17.771  0.7359E-16  0.2413E-02
    -17.680  0.8822E-12  0.2413E-02
    -17.589  0.2111E-08  0.2413E-02
    -17.498  0.1014E-05  0.2413E-02
    -17.407  0.1002E-03  0.2422E-02
    -17.316  0.2116E-02  0.2614E-02
    -17.225  0.1004E-01  0.3528E-02
    -17.134  0.1116E-01  0.4544E-02
    -17.043  0.2916E-02  0.4809E-02
    -16.952  0.1724E-03  0.4825E-02
    -16.861  0.2195E-05  0.4825E-02
    -16.770  0.5776E-08  0.4825E-02
    -16.679  0.3059E-11  0.4825E-02
    -16.588  0.3209E-15  0.4825E-02
    -16.497  0.0000E+00  0.4825E-02
    -16.406  0.0000E+00  0.4825E-02
    -16.315  0.0000E+00  0.4825E-02
    -16.224  0.0000E+00  0.4825E-02
    -16.133  0.0000E+00  0.4825E-02
    -16.042  0.0000E+00  0.4825E-02
    -15.951  0.0000E+00  0.4825E-02
    -15.860  0.0000E+00  0.4825E-02
    -15.769  0.0000E+00  0.4825E-02
    -15.678  0.0000E+00  0.4825E-02
    -15.587  0.0000E+00  0.4825E-02
    -15.496  0.0000E+00  0.4825E-02
    -15.405  0.0000E+00  0.4825E-02
    -15.314  0.0000E+00  0.4825E-02
    -15.223  0.0000E+00  0.4825E-02
    -15.132  0.0000E+00  0.4825E-02
    -15.041  0.0000E+00  0.4825E-02
    -14.950  0.0000E+00  0.4825E-02
    -14.859  0.0000E+00  0.4825E-02
    -14.768  0.0000E+00  0.4825E-02
    -14.677  0.0000E+00  0.4825E-02
    -14.586  0.0000E+00  0.4825E-02
    -14.495  0.0000E+00  0.4825E-02
    -14.404  0.0000E+00  0.4825E-02
    -14.313  0.0000E+00  0.4825E-02
    -14.222  0.0000E+00  0.4825E-02
    -14.131  0.0000E+00  0.4825E-02
    -14.040  0.0000E+00  0.4825E-02
    -13.949  0.0000E+00  0.4825E-02
    -13.858  0.0000E+00  0.4825E-02
    -13.767  0.0000E+00  0.4825E-02
    -13.676  0.0000E+00  0.4825E-02
    -13.585  0.0000E+00  0.4825E-02
    -13.495  0.0000E+00  0.4825E-02
    -13.404  0.0000E+00  0.4825E-02
    -13.313  0.0000E+00  0.4825E-02
    -13.222  0.0000E+00  0.4825E-02
    -13.131  0.0000E+00  0.4825E-02
    -13.040  0.0000E+00  0.4825E-02
    -12.949  0.0000E+00  0.4825E-02
    -12.858  0.0000E+00  0.4825E-02
    -12.767  0.0000E+00  0.4825E-02
    -12.676  0.0000E+00  0.4825E-02
    -12.585  0.0000E+00  0.4825E-02
    -12.494  0.0000E+00  0.4825E-02
    -12.403  0.0000E+00  0.4825E-02
    -12.312  0.0000E+00  0.4825E-02
    -12.221  0.0000E+00  0.4825E-02
    -12.130  0.0000E+00  0.4825E-02
    -12.039  0.0000E+00  0.4825E-02
    -11.948  0.0000E+00  0.4825E-02
    -11.857  0.0000E+00  0.4825E-02
    -11.766  0.0000E+00  0.4825E-02
    -11.675  0.0000E+00  0.4825E-02
    -11.584  0.0000E+00  0.4825E-02
    -11.493  0.0000E+00  0.4825E-02
    -11.402  0.0000E+00  0.4825E-02
    -11.311  0.0000E+00  0.4825E-02
    -11.220  0.0000E+00  0.4825E-02
    -11.129  0.0000E+00  0.4825E-02
    -11.038  0.0000E+00  0.4825E-02
    -10.947  0.0000E+00  0.4825E-02
    -10.856  0.0000E+00  0.4825E-02
    -10.765  0.0000E+00  0.4825E-02
    -10.674  0.0000E+00  0.4825E-02
    -10.583  0.0000E+00  0.4825E-02
    -10.492  0.0000E+00  0.4825E-02
    -10.401  0.0000E+00  0.4825E-02
    -10.310  0.0000E+00  0.4825E-02
    -10.219  0.0000E+00  0.4825E-02
    -10.128  0.0000E+00  0.4825E-02
    -10.037  0.0000E+00  0.4825E-02
     -9.946  0.0000E+00  0.4825E-02
     -9.855  0.0000E+00  0.4825E-02
     -9.764  0.2944E-17  0.4825E-02
     -9.673  0.7023E-13  0.4825E-02
     -9.582  0.2672E-09  0.4825E-02
     -9.491  0.2030E-06  0.4825E-02
     -9.400  0.3147E-04  0.4828E-02
     -9.309  0.1030E-02  0.4922E-02
     -9.218  0.7463E-02  0.5601E-02
     -9.127  0.1255E-01  0.6743E-02
     -9.036  0.4979E-02  0.7196E-02
     -8.945  0.4532E-03  0.7237E-02
     -8.854  0.9005E-05  0.7238E-02
     -8.763  0.3737E-07  0.7238E-02
     -8.672  0.3141E-10  0.7238E-02
     -8.581  0.5249E-14  0.7238E-02
     -8.490  0.0000E+00  0.7238E-02
     -8.399  0.5888E-17  0.7238E-02
     -8.308  0.9806E-13  0.7238E-02
     -8.217  0.3517E-09  0.7238E-02
     -8.126  0.2526E-06  0.7238E-02
     -8.035  0.3742E-04  0.7241E-02
     -7.944  0.1222E-02  0.7352E-02
     -7.853  0.1024E-01  0.8284E-02
     -7.762  0.2836E-01  0.1086E-01
     -7.671  0.2933E-01  0.1353E-01
     -7.580  0.1003E-01  0.1445E-01
     -7.489  0.7593E-02  0.1514E-01
     -7.398  0.2279E-01  0.1721E-01
     -7.307  0.1891E-01  0.1893E-01
     -7.216  0.3870E-02  0.1928E-01
     -7.125  0.1868E-03  0.1930E-01
     -7.034  0.3241E-05  0.1930E-01
     -6.943  0.1148E-03  0.1931E-01
     -6.852  0.2307E-02  0.1952E-01
     -6.761  0.1099E-01  0.2052E-01
     -6.670  0.1968E-01  0.2231E-01
     -6.579  0.4038E-01  0.2598E-01
     -6.488  0.7961E-01  0.3323E-01
     -6.398  0.1074E+00  0.4300E-01
     -6.307  0.8925E-01  0.5112E-01
     -6.216  0.6351E-01  0.5690E-01
     -6.125  0.3142E-01  0.5976E-01
     -6.034  0.1072E-01  0.6074E-01
     -5.943  0.1964E-01  0.6253E-01
     -5.852  0.4430E-01  0.6656E-01
     -5.761  0.8014E-01  0.7385E-01
     -5.670  0.7566E-01  0.8073E-01
     -5.579  0.7409E-01  0.8747E-01
     -5.488  0.1127E+00  0.9772E-01
     -5.397  0.1418E+00  0.1106E+00
     -5.306  0.1488E+00  0.1242E+00
     -5.215  0.1212E+00  0.1352E+00
     -5.124  0.8184E-01  0.1426E+00
     -5.033  0.7624E-01  0.1496E+00
     -4.942  0.8565E-01  0.1574E+00
     -4.851  0.6328E-01  0.1631E+00
     -4.760  0.4463E-01  0.1672E+00
     -4.669  0.7125E-01  0.1737E+00
     -4.578  0.1273E+00  0.1853E+00
     -4.487  0.1390E+00  0.1979E+00
     -4.396  0.9206E-01  0.2063E+00
     -4.305  0.7792E-01  0.2134E+00
     -4.214  0.1045E+00  0.2229E+00
     -4.123  0.1369E+00  0.2353E+00
     -4.032  0.1480E+00  0.2488E+00
     -3.941  0.1210E+00  0.2598E+00
     -3.850  0.7966E-01  0.2671E+00
     -3.759  0.5774E-01  0.2723E+00
     -3.668  0.8214E-01  0.2798E+00
     -3.577  0.1100E+00  0.2898E+00
     -3.486  0.1077E+00  0.2996E+00
     -3.395  0.1231E+00  0.3108E+00
     -3.304  0.1594E+00  0.3253E+00
     -3.213  0.1974E+00  0.3433E+00
     -3.122  0.1863E+00  0.3602E+00
     -3.031  0.1355E+00  0.3725E+00
     -2.940  0.1117E+00  0.3827E+00
     -2.849  0.1664E+00  0.3978E+00
     -2.758  0.1968E+00  0.4157E+00
     -2.667  0.1744E+00  0.4316E+00
     -2.576  0.1366E+00  0.4440E+00
     -2.485  0.1216E+00  0.4551E+00
     -2.394  0.1448E+00  0.4683E+00
     -2.303  0.1370E+00  0.4807E+00
     -2.212  0.9253E-01  0.4891E+00
     -2.121  0.7515E-01  0.4960E+00
     -2.030  0.7795E-01  0.5031E+00
     -1.939  0.9947E-01  0.5121E+00
     -1.848  0.1425E+00  0.5251E+00
     -1.757  0.1714E+00  0.5407E+00
     -1.666  0.1318E+00  0.5527E+00
     -1.575  0.9302E-01  0.5611E+00
     -1.484  0.1016E+00  0.5704E+00
     -1.393  0.1035E+00  0.5798E+00
     -1.302  0.9355E-01  0.5883E+00
     -1.211  0.1087E+00  0.5982E+00
     -1.120  0.1297E+00  0.6100E+00
     -1.029  0.1175E+00  0.6207E+00
     -0.938  0.1123E+00  0.6309E+00
     -0.847  0.1271E+00  0.6425E+00
     -0.756  0.1317E+00  0.6545E+00
     -0.665  0.1001E+00  0.6636E+00
     -0.574  0.7152E-01  0.6701E+00
     -0.483  0.6981E-01  0.6765E+00
     -0.392  0.7751E-01  0.6835E+00
     -0.301  0.1016E+00  0.6928E+00
     -0.210  0.1181E+00  0.7035E+00
     -0.119  0.1088E+00  0.7134E+00
     -0.028  0.9476E-01  0.7220E+00
      0.063  0.1224E+00  0.7332E+00
      0.154  0.1654E+00  0.7482E+00
      0.245  0.2129E+00  0.7676E+00
      0.336  0.2518E+00  0.7905E+00
      0.427  0.1776E+00  0.8066E+00
      0.518  0.1071E+00  0.8164E+00
      0.609  0.9893E-01  0.8254E+00
      0.700  0.9697E-01  0.8342E+00
      0.790  0.8241E-01  0.8417E+00
      0.881  0.4412E-01  0.8457E+00
      0.972  0.1207E-01  0.8468E+00
      1.063  0.1085E-01  0.8478E+00
      1.154  0.3076E-01  0.8506E+00
      1.245  0.4111E-01  0.8543E+00
      1.336  0.2498E-01  0.8566E+00
      1.427  0.1611E-01  0.8581E+00
      1.518  0.1480E-01  0.8594E+00
      1.609  0.2086E-01  0.8613E+00
      1.700  0.2468E-01  0.8636E+00
      1.791  0.1940E-01  0.8653E+00
      1.882  0.7912E-02  0.8661E+00
      1.973  0.5908E-02  0.8666E+00
      2.064  0.2107E-01  0.8685E+00
      2.155  0.3264E-01  0.8715E+00
      2.246  0.1777E-01  0.8731E+00
      2.337  0.4597E-02  0.8735E+00
      2.428  0.1153E-01  0.8746E+00
      2.519  0.2547E-01  0.8769E+00
      2.610  0.4387E-01  0.8809E+00
      2.701  0.5683E-01  0.8860E+00
      2.792  0.3884E-01  0.8896E+00
      2.883  0.2872E-01  0.8922E+00
      2.974  0.4164E-01  0.8960E+00
      3.065  0.3597E-01  0.8993E+00
      3.156  0.2172E-01  0.9012E+00
      3.247  0.2977E-01  0.9039E+00
      3.338  0.2933E-01  0.9066E+00
      3.429  0.1834E-01  0.9083E+00
      3.520  0.1119E-01  0.9093E+00
      3.611  0.3093E-02  0.9096E+00
      3.702  0.7653E-02  0.9103E+00
      3.793  0.2879E-01  0.9129E+00
      3.884  0.4031E-01  0.9166E+00
      3.975  0.2604E-01  0.9189E+00
      4.066  0.2064E-01  0.9208E+00
      4.157  0.2420E-01  0.9230E+00
      4.248  0.1520E-01  0.9244E+00
      4.339  0.2384E-01  0.9266E+00
      4.430  0.3304E-01  0.9296E+00
      4.521  0.3315E-01  0.9326E+00
      4.612  0.2643E-01  0.9350E+00
      4.703  0.2005E-01  0.9368E+00
      4.794  0.1403E-01  0.9381E+00
      4.885  0.4074E-02  0.9385E+00
      4.976  0.1361E-02  0.9386E+00
      5.067  0.8674E-02  0.9394E+00
      5.158  0.2066E-01  0.9412E+00
      5.249  0.1836E-01  0.9429E+00
      5.340  0.1234E-01  0.9440E+00
      5.431  0.1293E-01  0.9452E+00
      5.522  0.5013E-02  0.9457E+00
      5.613  0.4580E-03  0.9457E+00
      5.704  0.9149E-05  0.9457E+00
      5.795  0.3817E-07  0.9457E+00
      5.886  0.3226E-10  0.9457E+00
      5.977  0.5419E-14  0.9457E+00
      6.068  0.0000E+00  0.9457E+00
      6.159  0.0000E+00  0.9457E+00
      6.250  0.0000E+00  0.9457E+00
      6.341  0.0000E+00  0.9457E+00
      6.432  0.0000E+00  0.9457E+00
      6.523  0.0000E+00  0.9457E+00
      6.614  0.0000E+00  0.9457E+00
