   66   66  829    1
  0.4130481E+02  0.9717792E-09  0.1122114E-08  0.2500000E-08  0.1500000E-16
  1.000000000000000E-004
  CAR 
 Pt111 O2 adsorption system              
    652      1    392
 
  0.0000000E+00  0.0000000E+00  0.0000000E+00  0.1000000E+01
    1      -19.441772   1.000000
    2      -17.218311   1.000000
    3       -9.185329   1.000000
    4       -7.823883   1.000000
    5       -7.742506   1.000000
    6       -7.726364   1.000000
    7       -7.425002   1.000000
    8       -7.396031   1.000000
    9       -6.758030   1.000000
   10       -6.616800   1.000000
   11       -6.567609   1.000000
   12       -6.552507   1.000000
   13       -6.490414   1.000000
   14       -6.471410   1.000000
   15       -6.462452   1.000000
   16       -6.454881   1.000000
   17       -6.433201   1.000000
   18       -6.409646   1.000000
   19       -6.399944   1.000000
   20       -6.375734   1.000000
   21       -6.343712   1.000000
   22       -6.282321   1.000000
   23       -6.263212   1.000000
   24       -6.249939   1.000000
   25       -6.193591   1.000000
   26       -5.966162   1.000000
   27       -5.884557   1.000000
   28       -5.815594   1.000000
   29       -5.791037   1.000000
   30       -5.788576   1.000000
   31       -5.768652   1.000000
   32       -5.755201   1.000000
   33       -5.739995   1.000000
   34       -5.682109   1.000000
   35       -5.583836   1.000000
   36       -5.571500   1.000000
   37       -5.563604   1.000000
   38       -5.557926   1.000000
   39       -5.527373   1.000000
   40       -5.503535   1.000000
   41       -5.472290   1.000000
   42       -5.460237   1.000000
   43       -5.447927   1.000000
   44       -5.425645   1.000000
   45       -5.413147   1.000000
   46       -5.407640   1.000000
   47       -5.389596   1.000000
   48       -5.367611   1.000000
   49       -5.351261   1.000000
   50       -5.340096   1.000000
   51       -5.331287   1.000000
   52       -5.307334   1.000000
   53       -5.294225   1.000000
   54       -5.281132   1.000000
   55       -5.265572   1.000000
   56       -5.231857   1.000000
   57       -5.221463   1.000000
   58       -5.195799   1.000000
   59       -5.156300   1.000000
   60       -5.104972   1.000000
   61       -5.060751   1.000000
   62       -5.028872   1.000000
   63       -5.016597   1.000000
   64       -5.000408   1.000000
   65       -4.972393   1.000000
   66       -4.924749   1.000000
   67       -4.914780   1.000000
   68       -4.905768   1.000000
   69       -4.784296   1.000000
   70       -4.729582   1.000000
   71       -4.706009   1.000000
   72       -4.654033   1.000000
   73       -4.631360   1.000000
   74       -4.613367   1.000000
   75       -4.593632   1.000000
   76       -4.586222   1.000000
   77       -4.579826   1.000000
   78       -4.568584   1.000000
   79       -4.552443   1.000000
   80       -4.548181   1.000000
   81       -4.526664   1.000000
   82       -4.522131   1.000000
   83       -4.513711   1.000000
   84       -4.466783   1.000000
   85       -4.426981   1.000000
   86       -4.409839   1.000000
   87       -4.360666   1.000000
   88       -4.318013   1.000000
   89       -4.293049   1.000000
   90       -4.261904   1.000000
   91       -4.240031   1.000000
   92       -4.221517   1.000000
   93       -4.213866   1.000000
   94       -4.183679   1.000000
   95       -4.166571   1.000000
   96       -4.150355   1.000000
   97       -4.145593   1.000000
   98       -4.112929   1.000000
   99       -4.097753   1.000000
  100       -4.083552   1.000000
  101       -4.076548   1.000000
  102       -4.064043   1.000000
  103       -4.059658   1.000000
  104       -4.038717   1.000000
  105       -4.019903   1.000000
  106       -3.997544   1.000000
  107       -3.960940   1.000000
  108       -3.956965   1.000000
  109       -3.943629   1.000000
  110       -3.905491   1.000000
  111       -3.883997   1.000000
  112       -3.806517   1.000000
  113       -3.784072   1.000000
  114       -3.694381   1.000000
  115       -3.674158   1.000000
  116       -3.663023   1.000000
  117       -3.655156   1.000000
  118       -3.636851   1.000000
  119       -3.631477   1.000000
  120       -3.599910   1.000000
  121       -3.573521   1.000000
  122       -3.539994   1.000000
  123       -3.532903   1.000000
  124       -3.486594   1.000000
  125       -3.462685   1.000000
  126       -3.453124   1.000000
  127       -3.438570   1.000000
  128       -3.423132   1.000000
  129       -3.397180   1.000000
  130       -3.376575   1.000000
  131       -3.347290   1.000000
  132       -3.336683   1.000000
  133       -3.326379   1.000000
  134       -3.307706   1.000000
  135       -3.298628   1.000000
  136       -3.293021   1.000000
  137       -3.279367   1.000000
  138       -3.270609   1.000000
  139       -3.257287   1.000000
  140       -3.237875   1.000000
  141       -3.224713   1.000000
  142       -3.220553   1.000000
  143       -3.211607   1.000000
  144       -3.207593   1.000000
  145       -3.198119   1.000000
  146       -3.185069   1.000000
  147       -3.166116   1.000000
  148       -3.159879   1.000000
  149       -3.135405   1.000000
  150       -3.130435   1.000000
  151       -3.105516   1.000000
  152       -3.095918   1.000000
  153       -3.087092   1.000000
  154       -3.070487   1.000000
  155       -3.055723   1.000000
  156       -3.014686   1.000000
  157       -2.971726   1.000000
  158       -2.942138   1.000000
  159       -2.915624   1.000000
  160       -2.899148   1.000000
  161       -2.881841   1.000000
  162       -2.876715   1.000000
  163       -2.863789   1.000000
  164       -2.860990   1.000000
  165       -2.853762   1.000000
  166       -2.837033   1.000000
  167       -2.833308   1.000000
  168       -2.827375   1.000000
  169       -2.815291   1.000000
  170       -2.807652   1.000000
  171       -2.787604   1.000000
  172       -2.773774   1.000000
  173       -2.762786   1.000000
  174       -2.743748   1.000000
  175       -2.732593   1.000000
  176       -2.704761   1.000000
  177       -2.691937   1.000000
  178       -2.689958   1.000000
  179       -2.680994   1.000000
  180       -2.674630   1.000000
  181       -2.660855   1.000000
  182       -2.649585   1.000000
  183       -2.622408   1.000000
  184       -2.585916   1.000000
  185       -2.563991   1.000000
  186       -2.545644   1.000000
  187       -2.512345   1.000000
  188       -2.510325   1.000000
  189       -2.483199   1.000000
  190       -2.463804   1.000000
  191       -2.435966   1.000000
  192       -2.415720   1.000000
  193       -2.409804   1.000000
  194       -2.397867   1.000000
  195       -2.386440   1.000000
  196       -2.382463   1.000000
  197       -2.368850   1.000000
  198       -2.353000   1.000000
  199       -2.340210   1.000000
  200       -2.331888   1.000000
  201       -2.280948   1.000000
  202       -2.255026   1.000000
  203       -2.223463   1.000000
  204       -2.174600   1.000000
  205       -2.171849   1.000000
  206       -2.136274   1.000000
  207       -2.070231   1.000000
  208       -2.050266   1.000000
  209       -2.036782   1.000000
  210       -2.002322   1.000000
  211       -1.968137   1.000000
  212       -1.934155   1.000000
  213       -1.917799   1.000000
  214       -1.902752   1.000000
  215       -1.898254   1.000000
  216       -1.871951   1.000000
  217       -1.856897   1.000000
  218       -1.838360   1.000000
  219       -1.822493   1.000000
  220       -1.811443   1.000000
  221       -1.804942   1.000000
  222       -1.785683   1.000000
  223       -1.784438   1.000000
  224       -1.778882   1.000000
  225       -1.771529   1.000000
  226       -1.753536   1.000000
  227       -1.735928   1.000000
  228       -1.729885   1.000000
  229       -1.700144   1.000000
  230       -1.664769   1.000000
  231       -1.629975   1.000000
  232       -1.607890   1.000000
  233       -1.560824   1.000000
  234       -1.536548   1.000000
  235       -1.526976   1.000000
  236       -1.499503   1.000000
  237       -1.484528   1.000000
  238       -1.467511   1.000000
  239       -1.445752   1.000000
  240       -1.416264   1.000000
  241       -1.388499   1.000000
  242       -1.371339   1.000000
  243       -1.351762   1.000000
  244       -1.292959   1.000000
  245       -1.275923   1.000000
  246       -1.252515   1.000000
  247       -1.238253   1.000000
  248       -1.212921   1.000000
  249       -1.188503   1.000000
  250       -1.165426   1.000000
  251       -1.158785   1.000000
  252       -1.155126   1.000000
  253       -1.143231   1.000000
  254       -1.111383   1.000000
  255       -1.096116   1.000000
  256       -1.084118   1.000000
  257       -1.054317   1.000000
  258       -1.024129   1.000000
  259       -0.987309   1.000000
  260       -0.979687   1.000000
  261       -0.944305   1.000000
  262       -0.940881   1.000000
  263       -0.919034   1.000000
  264       -0.897362   1.000000
  265       -0.882112   1.000000
  266       -0.856260   1.000000
  267       -0.839044   1.000000
  268       -0.812875   1.000000
  269       -0.800573   1.000000
  270       -0.795764   1.000000
  271       -0.782778   1.000000
  272       -0.764149   1.000000
  273       -0.754449   1.000000
  274       -0.722153   1.000000
  275       -0.699862   1.000000
  276       -0.659728   1.000000
  277       -0.624049   1.000000
  278       -0.567508   1.000000
  279       -0.547368   1.000000
  280       -0.521196   1.000000
  281       -0.484592   1.000000
  282       -0.437318   1.000000
  283       -0.403643   1.000000
  284       -0.375257   1.000000
  285       -0.351614   1.000000
  286       -0.326427   1.000000
  287       -0.308672   1.000000
  288       -0.296790   1.000000
  289       -0.281174   1.000000
  290       -0.238324   1.000000
  291       -0.225597   1.000000
  292       -0.216926   1.000000
  293       -0.199879   1.000000
  294       -0.177249   1.000000
  295       -0.164090   1.000000
  296       -0.130757   1.000000
  297       -0.101588   1.000000
  298       -0.092194   1.000000
  299       -0.018189   0.999999
  300       -0.001827   0.999997
  301        0.001809   0.999996
  302        0.024136   0.999985
  303        0.052193   0.999919
  304        0.064080   0.999843
  305        0.083490   0.999565
  306        0.092754   0.999309
  307        0.117687   0.997785
  308        0.121363   0.997396
  309        0.134896   0.995372
  310        0.140332   0.994224
  311        0.159826   0.987772
  312        0.179846   0.975394
  313        0.188131   0.967813
  314        0.200735   0.952673
  315        0.216330   0.926580
  316        0.225354   0.907110
  317        0.242932   0.858718
  318        0.253513   0.822503
  319        0.272804   0.742843
  320        0.279074   0.713437
  321        0.286224   0.678081
  322        0.288871   0.664548
  323        0.290683   0.655157
  324        0.297206   0.620588
  325        0.300083   0.605014
  326        0.306042   0.572238
  327        0.310024   0.550037
  328        0.314453   0.525164
  329        0.322371   0.480516
  330        0.325152   0.464867
  331        0.332587   0.423348
  332        0.345346   0.354288
  333        0.361439   0.273800
  334        0.393991   0.144182
  335        0.413580   0.090326
  336        0.447477   0.034523
  337        0.475715   0.013295
  338        0.486997   0.008727
  339        0.518684   0.002363
  340        0.554003   0.000443
  341        0.567701   0.000217
  342        0.605097   0.000026
  343        0.619682   0.000011
  344        0.635877   0.000004
  345        0.639333   0.000003
  346        0.720718   0.000000
  347        0.727896   0.000000
  348        0.733013   0.000000
  349        0.741829   0.000000
  350        0.791802   0.000000
  351        0.840339   0.000000
  352        1.097653   0.000000
  353        1.167340   0.000000
  354        1.205749   0.000000
  355        1.236581   0.000000
  356        1.399688   0.000000
  357        1.566296   0.000000
  358        1.652767   0.000000
  359        1.752941   0.000000
  360        2.039555   0.000000
  361        2.119057   0.000000
  362        2.140570   0.000000
  363        2.440467   0.000000
  364        2.534014   0.000000
  365        2.614174   0.000000
  366        2.627631   0.000000
  367        2.668223   0.000000
  368        2.679993   0.000000
  369        2.754186   0.000000
  370        2.875947   0.000000
  371        2.950282   0.000000
  372        2.978094   0.000000
  373        3.001065   0.000000
  374        3.163664   0.000000
  375        3.261913   0.000000
  376        3.269089   0.000000
  377        3.429118   0.000000
  378        3.756241   0.000000
  379        3.814924   0.000000
  380        3.837808   0.000000
  381        3.908716   0.000000
  382        4.070326   0.000000
  383        4.122879   0.000000
  384        4.335513   0.000000
  385        4.341084   0.000000
  386        4.465565   0.000000
  387        4.493712   0.000000
  388        4.601205   0.000000
  389        4.723795   0.000000
  390        5.099897   0.000000
  391        5.184639   0.000000
  392        5.372944   0.000000
