 running on   64 total cores
 distrk:  each k-point on   64 cores,    1 groups
 distr:  one band on    8 cores,    8 groups
 using from now: INCAR     
 vasp.5.4.4.18Apr17-6-g9f103f2a35 (build Mar 22 2023 16:46:20) complex          
  
 POSCAR found type information on POSCAR  Pt O 
 POSCAR found :  2 types and      66 ions
 scaLAPACK will be used
 LDA part: xc-table for Pade appr. of Perdew
 POSCAR found type information on POSCAR  Pt O 
 POSCAR found :  2 types and      66 ions
 POSCAR, INCAR and KPOINTS ok, starting setup
 FFT: planning ...
 WAVECAR not read
 WARNING: chargedensity file is incomplete
 entering main loop
       N       E                     dE             d eps       ncg     rms          rms(c)
DAV:   1     0.430721543737E+04    0.43072E+04   -0.26832E+05   784   0.127E+03
DAV:   2    -0.522416152184E+02   -0.43595E+04   -0.40042E+04   912   0.277E+02
DAV:   3    -0.388783099803E+03   -0.33654E+03   -0.30360E+03   936   0.707E+01
DAV:   4    -0.406920707379E+03   -0.18138E+02   -0.16622E+02  1008   0.147E+01
DAV:   5    -0.407427462246E+03   -0.50675E+00   -0.50066E+00   960   0.255E+00    0.893E+01
RMM:   6    -0.405641090245E+03    0.17864E+01   -0.83931E+01   787   0.142E+01    0.751E+01
RMM:   7    -0.446060543335E+03   -0.40419E+02   -0.14759E+02   784   0.131E+01    0.726E+01
RMM:   8    -0.415171574430E+03    0.30889E+02   -0.84945E+01   787   0.116E+01    0.488E+01
RMM:   9    -0.396888834604E+03    0.18283E+02   -0.39394E+01   785   0.792E+00    0.375E+01
RMM:  10    -0.424482752821E+03   -0.27594E+02   -0.20158E+01   787   0.459E+00    0.513E+01
RMM:  11    -0.384346362845E+03    0.40136E+02   -0.14861E+01   788   0.447E+00    0.265E+01
RMM:  12    -0.380949970502E+03    0.33964E+01   -0.42541E+00   789   0.254E+00    0.219E+01
RMM:  13    -0.378837625798E+03    0.21123E+01   -0.21671E+00   789   0.181E+00    0.128E+01
RMM:  14    -0.378180148588E+03    0.65748E+00   -0.72808E-01   788   0.104E+00    0.860E+00
RMM:  15    -0.377958217263E+03    0.22193E+00   -0.24551E-01   788   0.629E-01    0.685E+00
RMM:  16    -0.377835958444E+03    0.12226E+00   -0.18044E-01   788   0.540E-01    0.537E+00
RMM:  17    -0.377808247781E+03    0.27711E-01   -0.26351E-01   789   0.629E-01    0.547E+00
RMM:  18    -0.377745951466E+03    0.62296E-01   -0.16468E-01   789   0.532E-01    0.427E+00
RMM:  19    -0.377675158312E+03    0.70793E-01   -0.12250E-01   788   0.461E-01    0.295E+00
RMM:  20    -0.377656595728E+03    0.18563E-01   -0.39894E-02   788   0.256E-01    0.246E+00
RMM:  21    -0.377637740133E+03    0.18856E-01   -0.20281E-02   788   0.176E-01    0.148E+00
RMM:  22    -0.377629807131E+03    0.79330E-02   -0.11985E-02   788   0.140E-01    0.984E-01
RMM:  23    -0.377627364494E+03    0.24426E-02   -0.41816E-03   789   0.825E-02    0.722E-01
RMM:  24    -0.377626409510E+03    0.95498E-03   -0.22353E-03   788   0.610E-02    0.536E-01
RMM:  25    -0.377626374291E+03    0.35219E-04   -0.18173E-03   788   0.546E-02    0.398E-01
RMM:  26    -0.377626335161E+03    0.39130E-04   -0.98711E-04   790   0.409E-02    0.235E-01
RMM:  27    -0.377626345582E+03   -0.10421E-04   -0.37849E-04   788   0.256E-02    0.117E-01
RMM:  28    -0.377626571067E+03   -0.22549E-03   -0.16016E-04   788   0.161E-02    0.824E-02
RMM:  29    -0.377626952632E+03   -0.38157E-03   -0.89616E-05   788   0.118E-02    0.107E-01
RMM:  30    -0.377627284280E+03   -0.33165E-03   -0.61989E-05   786   0.992E-03    0.705E-02
RMM:  31    -0.377627656741E+03   -0.37246E-03   -0.63829E-05   786   0.960E-03    0.832E-02
RMM:  32    -0.377627996970E+03   -0.34023E-03   -0.63944E-05   785   0.934E-03    0.454E-02
RMM:  33    -0.377628142039E+03   -0.14507E-03   -0.20392E-05   779   0.541E-03    0.333E-02
RMM:  34    -0.377628307598E+03   -0.16556E-03   -0.16406E-05   754   0.453E-03    0.272E-02
RMM:  35    -0.377628552675E+03   -0.24508E-03   -0.26217E-05   756   0.534E-03    0.370E-02
RMM:  36    -0.377628753658E+03   -0.20098E-03   -0.29445E-05   754   0.545E-03    0.294E-02
RMM:  37    -0.377628859140E+03   -0.10548E-03   -0.12433E-05   669   0.327E-03    0.197E-02
RMM:  38    -0.377628951414E+03   -0.92275E-04   -0.95940E-06   630   0.280E-03    0.139E-02
RMM:  39    -0.377628988815E+03   -0.37400E-04   -0.24978E-06   495   0.146E-03    0.124E-02
RMM:  40    -0.377629045443E+03   -0.56629E-04   -0.26228E-06   502   0.143E-03    0.124E-02
RMM:  41    -0.377629079480E+03   -0.34037E-04   -0.14889E-06   459   0.108E-03    0.105E-02
RMM:  42    -0.377629111973E+03   -0.32493E-04   -0.16317E-06   460   0.103E-03    0.581E-03
RMM:  43    -0.377629126221E+03   -0.14248E-04   -0.64754E-07   390   0.724E-04    0.148E-02
RMM:  44    -0.377629134469E+03   -0.82480E-05   -0.42577E-07   360   0.621E-04    0.212E-02
RMM:  45    -0.377629145023E+03   -0.10554E-04   -0.87254E-07   431   0.908E-04    0.443E-02
RMM:  46    -0.377629143364E+03    0.16593E-05   -0.70016E-07   429   0.910E-04    0.173E-02
RMM:  47    -0.377629154774E+03   -0.11410E-04   -0.25354E-06   487   0.147E-03    0.192E-02
RMM:  48    -0.377629154604E+03    0.17052E-06   -0.24986E-07   415   0.776E-04
   1 F= -.41268141E+03 E0= -.41217013E+03  d E =-.102257E+01
 Finite differences POTIM= 0.01500 DOF= 102
 bond charge predicted
       N       E                     dE             d eps       ncg     rms          rms(c)
DAV:   1    -0.377627005580E+03    0.21492E-02   -0.12496E+00   800   0.137E+00    0.153E-01
RMM:   2    -0.377628406262E+03   -0.14007E-02   -0.13014E-02   788   0.197E-01    0.217E-01
RMM:   3    -0.377628541836E+03   -0.13557E-03   -0.79350E-04   792   0.343E-02    0.237E-01
RMM:   4    -0.377629759592E+03   -0.12178E-02   -0.44140E-04   790   0.224E-02    0.523E-01
RMM:   5    -0.377628468576E+03    0.12910E-02   -0.40219E-04   788   0.241E-02    0.279E-01
RMM:   6    -0.377628216245E+03    0.25233E-03   -0.25251E-04   790   0.208E-02    0.135E-01
RMM:   7    -0.377628210008E+03    0.62367E-05   -0.16057E-04   788   0.161E-02    0.122E-01
RMM:   8    -0.377628191372E+03    0.18635E-04   -0.93730E-05   789   0.123E-02    0.113E-01
RMM:   9    -0.377628134033E+03    0.57340E-04   -0.38128E-05   786   0.827E-03    0.354E-02
RMM:  10    -0.377628131348E+03    0.26843E-05   -0.84873E-06   772   0.391E-03    0.242E-02
RMM:  11    -0.377628128572E+03    0.27758E-05   -0.49432E-06   631   0.286E-03    0.164E-02
RMM:  12    -0.377628127166E+03    0.14066E-05   -0.34815E-06   516   0.248E-03    0.151E-02
RMM:  13    -0.377628126448E+03    0.71822E-06   -0.12601E-06   413   0.161E-03
   2 F= -.41268046E+03 E0= -.41216948E+03  d E =-.102197E+01
 Finite differences progress:
  Degree of freedom:   1/102
  Displacement:        1/  2
  Total:               1/204
 bond charge predicted
       N       E                     dE             d eps       ncg     rms          rms(c)
DAV:   1    -0.377623237019E+03    0.48901E-02   -0.50024E+00   800   0.275E+00    0.307E-01
RMM:   2    -0.377628749996E+03   -0.55130E-02   -0.52177E-02   787   0.395E-01    0.410E-01
RMM:   3    -0.377628972012E+03   -0.22202E-03   -0.32025E-03   793   0.695E-02    0.397E-01
RMM:   4    -0.377636481445E+03   -0.75094E-02   -0.20078E-03   790   0.477E-02    0.122E+00
RMM:   5    -0.377628918330E+03    0.75631E-02   -0.17844E-03   788   0.497E-02    0.494E-01
RMM:   6    -0.377628114606E+03    0.80372E-03   -0.85396E-04   789   0.381E-02    0.275E-01
RMM:   7    -0.377628014198E+03    0.10041E-03   -0.61918E-04   788   0.311E-02    0.222E-01
RMM:   8    -0.377627873699E+03    0.14050E-03   -0.35682E-04   789   0.239E-02    0.164E-01
RMM:   9    -0.377627731165E+03    0.14253E-03   -0.11695E-04   787   0.139E-02    0.457E-02
RMM:  10    -0.377627721349E+03    0.98167E-05   -0.26062E-05   784   0.652E-03    0.485E-02
RMM:  11    -0.377627713794E+03    0.75546E-05   -0.14778E-05   784   0.481E-03    0.409E-02
RMM:  12    -0.377627704126E+03    0.96676E-05   -0.13136E-05   781   0.470E-03    0.172E-02
RMM:  13    -0.377627703626E+03    0.50046E-06   -0.39475E-06   552   0.262E-03
   3 F= -.41267994E+03 E0= -.41216844E+03  d E =-.102301E+01
 Finite differences progress:
  Degree of freedom:   1/102
  Displacement:        2/  2
  Total:               2/204
 bond charge predicted
       N       E                     dE             d eps       ncg     rms          rms(c)
DAV:   1    -0.377626357077E+03    0.13470E-02   -0.24900E+00   800   0.194E+00    0.211E-01
RMM:   2    -0.377629438330E+03   -0.30813E-02   -0.26367E-02   788   0.280E-01    0.402E-01
RMM:   3    -0.377629069464E+03    0.36887E-03   -0.15215E-03   798   0.474E-02    0.225E-01
RMM:   4    -0.377632486441E+03   -0.34170E-02   -0.89066E-04   791   0.324E-02    0.815E-01
RMM:   5    -0.377629341954E+03    0.31445E-02   -0.79051E-04   788   0.329E-02    0.402E-01
RMM:   6    -0.377628781965E+03    0.55999E-03   -0.53845E-04   790   0.303E-02    0.188E-01
RMM:   7    -0.377628778336E+03    0.36297E-05   -0.32763E-04   788   0.228E-02    0.182E-01
RMM:   8    -0.377628746631E+03    0.31705E-04   -0.21097E-04   789   0.184E-02    0.178E-01
RMM:   9    -0.377628609866E+03    0.13676E-03   -0.77560E-05   788   0.119E-02    0.565E-02
RMM:  10    -0.377628601296E+03    0.85706E-05   -0.21143E-05   786   0.631E-03    0.314E-02
RMM:  11    -0.377628597187E+03    0.41092E-05   -0.10099E-05   780   0.396E-03    0.285E-02
RMM:  12    -0.377628592778E+03    0.44083E-05   -0.77556E-06   733   0.346E-03    0.231E-02
RMM:  13    -0.377628589885E+03    0.28931E-05   -0.34328E-06   512   0.246E-03    0.114E-02
RMM:  14    -0.377628589584E+03    0.30138E-06   -0.20933E-06   423   0.203E-03
   4 F= -.41268088E+03 E0= -.41216977E+03  d E =-.102222E+01
 Finite differences progress:
  Degree of freedom:   2/102
  Displacement:        1/  2
  Total:               3/204
 bond charge predicted
       N       E                     dE             d eps       ncg     rms          rms(c)
DAV:   1    -0.377623133040E+03    0.54568E-02   -0.49598E+00   784   0.275E+00    0.296E-01
RMM:   2    -0.377629349877E+03   -0.62168E-02   -0.52780E-02   786   0.394E-01    0.581E-01
RMM:   3    -0.377628487586E+03    0.86229E-03   -0.30389E-03   802   0.668E-02    0.291E-01
RMM:   4    -0.377636512713E+03   -0.80251E-02   -0.19372E-03   790   0.478E-02    0.123E+00
RMM:   5    -0.377629257885E+03    0.72548E-02   -0.16552E-03   789   0.470E-02    0.585E-01
RMM:   6    -0.377628096626E+03    0.11613E-02   -0.93817E-04   789   0.404E-02    0.275E-01
RMM:   7    -0.377628126425E+03   -0.29798E-04   -0.61879E-04   789   0.309E-02    0.295E-01
RMM:   8    -0.377628023116E+03    0.10331E-03   -0.43911E-04   788   0.264E-02    0.269E-01
RMM:   9    -0.377627713024E+03    0.31009E-03   -0.18063E-04   788   0.184E-02    0.743E-02
RMM:  10    -0.377627704694E+03    0.83293E-05   -0.46307E-05   788   0.933E-03    0.473E-02
RMM:  11    -0.377627696646E+03    0.80481E-05   -0.18176E-05   784   0.524E-03    0.463E-02
RMM:  12    -0.377627684611E+03    0.12036E-04   -0.16081E-05   785   0.498E-03    0.291E-02
RMM:  13    -0.377627679964E+03    0.46466E-05   -0.68478E-06   719   0.333E-03    0.164E-02
RMM:  14    -0.377627679056E+03    0.90772E-06   -0.37577E-06   527   0.255E-03
   5 F= -.41267995E+03 E0= -.41216862E+03  d E =-.102266E+01
 Finite differences progress:
  Degree of freedom:   2/102
  Displacement:        2/  2
  Total:               4/204
 bond charge predicted
       N       E                     dE             d eps       ncg     rms          rms(c)
DAV:   1    -0.377627978515E+03   -0.29855E-03   -0.24776E+00   784   0.195E+00    0.224E-01
RMM:   2    -0.377630975529E+03   -0.29970E-02   -0.26162E-02   786   0.282E-01    0.380E-01
RMM:   3    -0.377630692686E+03    0.28284E-03   -0.16620E-03   800   0.512E-02    0.242E-01
RMM:   4    -0.377633968995E+03   -0.32763E-02   -0.10128E-03   789   0.364E-02    0.783E-01
RMM:   5    -0.377631551551E+03    0.24174E-02   -0.96287E-04   787   0.346E-02    0.502E-01
RMM:   6    -0.377630474210E+03    0.10773E-02   -0.49599E-04   790   0.292E-02    0.191E-01
RMM:   7    -0.377630405749E+03    0.68462E-04   -0.32841E-04   788   0.225E-02    0.170E-01
RMM:   8    -0.377630341491E+03    0.64258E-04   -0.19310E-04   789   0.177E-02    0.122E-01
RMM:   9    -0.377630265793E+03    0.75698E-04   -0.60905E-05   789   0.101E-02    0.591E-02
RMM:  10    -0.377630249740E+03    0.16053E-04   -0.17415E-05   785   0.537E-03    0.317E-02
RMM:  11    -0.377630247262E+03    0.24779E-05   -0.78583E-06   773   0.349E-03    0.287E-02
RMM:  12    -0.377630242502E+03    0.47596E-05   -0.76740E-06   735   0.351E-03    0.198E-02
RMM:  13    -0.377630240707E+03    0.17954E-05   -0.21845E-06   445   0.204E-03    0.130E-02
RMM:  14    -0.377630240071E+03    0.63549E-06   -0.14127E-06   411   0.171E-03
   6 F= -.41268050E+03 E0= -.41216883E+03  d E =-.102335E+01
 Finite differences progress:
  Degree of freedom:   3/102
  Displacement:        1/  2
  Total:               5/204
 bond charge predicted
       N       E                     dE             d eps       ncg     rms          rms(c)
DAV:   1    -0.377620801944E+03    0.94388E-02   -0.49737E+00   784   0.276E+00    0.349E-01
RMM:   2    -0.377627727374E+03   -0.69254E-02   -0.53325E-02   786   0.399E-01    0.667E-01
RMM:   3    -0.377630078460E+03   -0.23511E-02   -0.44405E-03   792   0.821E-02    0.909E-01
RMM:   4    -0.377627723601E+03    0.23549E-02   -0.14392E-03   791   0.434E-02    0.601E-01
RMM:   5    -0.377626877524E+03    0.84608E-03   -0.17189E-03   788   0.511E-02    0.551E-01
RMM:   6    -0.377625878002E+03    0.99952E-03   -0.99797E-04   790   0.400E-02    0.308E-01
RMM:   7    -0.377625659595E+03    0.21841E-03   -0.67616E-04   788   0.324E-02    0.276E-01
RMM:   8    -0.377625560327E+03    0.99268E-04   -0.42343E-04   789   0.260E-02    0.234E-01
RMM:   9    -0.377625375142E+03    0.18519E-03   -0.19562E-04   789   0.190E-02    0.123E-01
RMM:  10    -0.377625311165E+03    0.63977E-04   -0.58820E-05   789   0.106E-02    0.362E-02
RMM:  11    -0.377625307430E+03    0.37348E-05   -0.19722E-05   784   0.572E-03    0.336E-02
RMM:  12    -0.377625302157E+03    0.52723E-05   -0.14090E-05   777   0.461E-03    0.359E-02
RMM:  13    -0.377625295775E+03    0.63826E-05   -0.61444E-06   696   0.315E-03    0.152E-02
RMM:  14    -0.377625294739E+03    0.10356E-05   -0.22835E-06   433   0.208E-03    0.944E-03
RMM:  15    -0.377625294574E+03    0.16574E-06   -0.11902E-06   410   0.155E-03
   7 F= -.41267957E+03 E0= -.41216873E+03  d E =-.102168E+01
 Finite differences progress:
  Degree of freedom:   3/102
  Displacement:        2/  2
  Total:               6/204
 bond charge predicted
       N       E                     dE             d eps       ncg     rms          rms(c)
DAV:   1    -0.377625721827E+03   -0.42709E-03   -0.24866E+00   784   0.201E+00    0.232E-01
RMM:   2    -0.377628745324E+03   -0.30235E-02   -0.27359E-02   786   0.292E-01    0.339E-01
RMM:   3    -0.377628606456E+03    0.13887E-03   -0.18600E-03   792   0.553E-02    0.261E-01
RMM:   4    -0.377632617930E+03   -0.40115E-02   -0.11110E-03   789   0.375E-02    0.879E-01
RMM:   5    -0.377629256777E+03    0.33612E-02   -0.11126E-03   788   0.380E-02    0.470E-01
RMM:   6    -0.377628279837E+03    0.97694E-03   -0.44604E-04   789   0.276E-02    0.196E-01
RMM:   7    -0.377628238101E+03    0.41736E-04   -0.31239E-04   788   0.223E-02    0.171E-01
RMM:   8    -0.377628178915E+03    0.59185E-04   -0.19586E-04   787   0.177E-02    0.128E-01
RMM:   9    -0.377628091552E+03    0.87363E-04   -0.73299E-05   787   0.111E-02    0.498E-02
RMM:  10    -0.377628084374E+03    0.71780E-05   -0.14159E-05   783   0.480E-03    0.433E-02
RMM:  11    -0.377628077429E+03    0.69453E-05   -0.10000E-05   784   0.411E-03    0.231E-02
RMM:  12    -0.377628073464E+03    0.39654E-05   -0.73358E-06   765   0.346E-03    0.148E-02
RMM:  13    -0.377628072307E+03    0.11563E-05   -0.17358E-06   425   0.180E-03    0.104E-02
RMM:  14    -0.377628072227E+03    0.80268E-07   -0.12129E-06   410   0.154E-03
   8 F= -.41268032E+03 E0= -.41216907E+03  d E =-.102248E+01
 Finite differences progress:
  Degree of freedom:   4/102
  Displacement:        1/  2
  Total:               7/204
 bond charge predicted
       N       E                     dE             d eps       ncg     rms          rms(c)
DAV:   1    -0.377623381681E+03    0.46906E-02   -0.49899E+00   784   0.278E+00    0.316E-01
RMM:   2    -0.377628925666E+03   -0.55440E-02   -0.52356E-02   789   0.398E-01    0.409E-01
RMM:   3    -0.377629937245E+03   -0.10116E-02   -0.34754E-03   795   0.723E-02    0.548E-01
RMM:   4    -0.377634036499E+03   -0.40993E-02   -0.17892E-03   790   0.454E-02    0.101E+00
RMM:   5    -0.377629299738E+03    0.47368E-02   -0.17523E-03   788   0.501E-02    0.532E-01
RMM:   6    -0.377628274457E+03    0.10253E-02   -0.86878E-04   789   0.378E-02    0.254E-01
RMM:   7    -0.377628143780E+03    0.13068E-03   -0.60409E-04   788   0.311E-02    0.181E-01
RMM:   8    -0.377628059283E+03    0.84497E-04   -0.30910E-04   789   0.225E-02    0.159E-01
RMM:   9    -0.377627942703E+03    0.11658E-03   -0.89763E-05   787   0.125E-02    0.698E-02
RMM:  10    -0.377627929721E+03    0.12982E-04   -0.26303E-05   787   0.679E-03    0.489E-02
RMM:  11    -0.377627920320E+03    0.94011E-05   -0.16337E-05   783   0.514E-03    0.332E-02
RMM:  12    -0.377627912101E+03    0.82184E-05   -0.13542E-05   781   0.459E-03    0.171E-02
RMM:  13    -0.377627910777E+03    0.13247E-05   -0.40734E-06   553   0.261E-03    0.139E-02
RMM:  14    -0.377627910324E+03    0.45232E-06   -0.21066E-06   423   0.202E-03
   9 F= -.41268024E+03 E0= -.41216906E+03  d E =-.102237E+01
 Finite differences progress:
  Degree of freedom:   4/102
  Displacement:        2/  2
  Total:               8/204
 bond charge predicted
       N       E                     dE             d eps       ncg     rms          rms(c)
DAV:   1    -0.377625791065E+03    0.21197E-02   -0.24877E+00   784   0.197E+00    0.219E-01
RMM:   2    -0.377628843497E+03   -0.30524E-02   -0.26391E-02   787   0.282E-01    0.391E-01
RMM:   3    -0.377628905914E+03   -0.62417E-04   -0.16265E-03   797   0.491E-02    0.341E-01
RMM:   4    -0.377630913071E+03   -0.20072E-02   -0.84571E-04   790   0.314E-02    0.688E-01
RMM:   5    -0.377628706167E+03    0.22069E-02   -0.80222E-04   788   0.346E-02    0.370E-01
RMM:   6    -0.377628256402E+03    0.44976E-03   -0.49612E-04   790   0.287E-02    0.180E-01
RMM:   7    -0.377628230062E+03    0.26340E-04   -0.31686E-04   788   0.223E-02    0.167E-01
RMM:   8    -0.377628184358E+03    0.45704E-04   -0.19824E-04   790   0.180E-02    0.143E-01
RMM:   9    -0.377628091551E+03    0.92807E-04   -0.70738E-05   787   0.111E-02    0.592E-02
RMM:  10    -0.377628080600E+03    0.10951E-04   -0.15910E-05   784   0.551E-03    0.326E-02
RMM:  11    -0.377628076193E+03    0.44074E-05   -0.96920E-06   784   0.399E-03    0.254E-02
RMM:  12    -0.377628073217E+03    0.29759E-05   -0.64194E-06   709   0.318E-03    0.222E-02
RMM:  13    -0.377628070609E+03    0.26084E-05   -0.26643E-06   457   0.220E-03    0.106E-02
RMM:  14    -0.377628070299E+03    0.30984E-06   -0.15228E-06   412   0.176E-03
  10 F= -.41268047E+03 E0= -.41216915E+03  d E =-.102265E+01
 Finite differences progress:
  Degree of freedom:   5/102
  Displacement:        1/  2
  Total:               9/204
 bond charge predicted
       N       E                     dE             d eps       ncg     rms          rms(c)
DAV:   1    -0.377623755144E+03    0.43155E-02   -0.49651E+00   784   0.277E+00    0.299E-01
RMM:   2    -0.377630404694E+03   -0.66495E-02   -0.53361E-02   788   0.396E-01    0.661E-01
RMM:   3    -0.377629089178E+03    0.13155E-02   -0.31138E-03   803   0.676E-02    0.275E-01
RMM:   4    -0.377636954801E+03   -0.78656E-02   -0.19731E-03   788   0.491E-02    0.122E+00
RMM:   5    -0.377630027862E+03    0.69269E-02   -0.16500E-03   788   0.466E-02    0.591E-01
RMM:   6    -0.377628748278E+03    0.12796E-02   -0.96996E-04   788   0.407E-02    0.267E-01
RMM:   7    -0.377628731989E+03    0.16289E-04   -0.62450E-04   790   0.314E-02    0.274E-01
RMM:   8    -0.377628696280E+03    0.35709E-04   -0.39124E-04   788   0.252E-02    0.263E-01
RMM:   9    -0.377628397804E+03    0.29848E-03   -0.17123E-04   788   0.178E-02    0.633E-02
RMM:  10    -0.377628387971E+03    0.98323E-05   -0.38786E-05   788   0.846E-03    0.408E-02
RMM:  11    -0.377628383074E+03    0.48977E-05   -0.17649E-05   785   0.521E-03    0.465E-02
RMM:  12    -0.377628371754E+03    0.11320E-04   -0.12657E-05   784   0.446E-03    0.248E-02
RMM:  13    -0.377628368203E+03    0.35513E-05   -0.49037E-06   615   0.286E-03    0.135E-02
RMM:  14    -0.377628367536E+03    0.66678E-06   -0.35706E-06   496   0.251E-03
  11 F= -.41268055E+03 E0= -.41216941E+03  d E =-.102228E+01
 Finite differences progress:
  Degree of freedom:   5/102
  Displacement:        2/  2
  Total:              10/204
 bond charge predicted
       N       E                     dE             d eps       ncg     rms          rms(c)
DAV:   1    -0.377627684877E+03    0.68333E-03   -0.24983E+00   784   0.197E+00    0.219E-01
RMM:   2    -0.377631041103E+03   -0.33562E-02   -0.26704E-02   786   0.284E-01    0.458E-01
RMM:   3    -0.377630652068E+03    0.38904E-03   -0.17028E-03   798   0.506E-02    0.289E-01
RMM:   4    -0.377634398438E+03   -0.37464E-02   -0.10884E-03   789   0.356E-02    0.886E-01
RMM:   5    -0.377630486523E+03    0.39119E-02   -0.76911E-04   788   0.341E-02    0.333E-01
RMM:   6    -0.377630191078E+03    0.29544E-03   -0.44970E-04   790   0.272E-02    0.197E-01
RMM:   7    -0.377630179484E+03    0.11594E-04   -0.33249E-04   788   0.228E-02    0.210E-01
RMM:   8    -0.377630112298E+03    0.67186E-04   -0.21948E-04   790   0.188E-02    0.168E-01
RMM:   9    -0.377630002305E+03    0.10999E-03   -0.99817E-05   788   0.137E-02    0.665E-02
RMM:  10    -0.377629985066E+03    0.17240E-04   -0.24435E-05   787   0.671E-03    0.298E-02
RMM:  11    -0.377629981585E+03    0.34805E-05   -0.91224E-06   782   0.381E-03    0.262E-02
RMM:  12    -0.377629978709E+03    0.28764E-05   -0.72351E-06   727   0.336E-03    0.256E-02
RMM:  13    -0.377629975373E+03    0.33355E-05   -0.32125E-06   500   0.238E-03    0.104E-02
RMM:  14    -0.377629974975E+03    0.39857E-06   -0.15430E-06   414   0.178E-03
  12 F= -.41268034E+03 E0= -.41216910E+03  d E =-.102248E+01
 Finite differences progress:
  Degree of freedom:   6/102
  Displacement:        1/  2
  Total:              11/204
 bond charge predicted
       N       E                     dE             d eps       ncg     rms          rms(c)
DAV:   1    -0.377621530793E+03    0.84446E-02   -0.50175E+00   784   0.280E+00    0.350E-01
RMM:   2    -0.377629392525E+03   -0.78617E-02   -0.54878E-02   787   0.408E-01    0.797E-01
RMM:   3    -0.377627110794E+03    0.22817E-02   -0.42287E-03   792   0.820E-02    0.375E-01
RMM:   4    -0.377628121087E+03   -0.10103E-02   -0.17788E-03   789   0.523E-02    0.655E-01
RMM:   5    -0.377630760900E+03   -0.26398E-02   -0.13188E-03   789   0.408E-02    0.907E-01
RMM:   6    -0.377627000197E+03    0.37607E-02   -0.13574E-03   788   0.433E-02    0.403E-01
RMM:   7    -0.377626303497E+03    0.69670E-03   -0.71339E-04   789   0.340E-02    0.265E-01
RMM:   8    -0.377626252052E+03    0.51444E-04   -0.45512E-04   788   0.270E-02    0.245E-01
RMM:   9    -0.377626042162E+03    0.20989E-03   -0.20977E-04   788   0.195E-02    0.129E-01
RMM:  10    -0.377625975416E+03    0.66746E-04   -0.62976E-05   787   0.110E-02    0.407E-02
RMM:  11    -0.377625970774E+03    0.46425E-05   -0.18830E-05   782   0.558E-03    0.379E-02
RMM:  12    -0.377625967040E+03    0.37341E-05   -0.12198E-05   780   0.425E-03    0.391E-02
RMM:  13    -0.377625959068E+03    0.79714E-05   -0.87939E-06   770   0.375E-03    0.169E-02
RMM:  14    -0.377625957594E+03    0.14741E-05   -0.30188E-06   473   0.235E-03    0.110E-02
RMM:  15    -0.377625957345E+03    0.24862E-06   -0.14455E-06   410   0.171E-03
  13 F= -.41268014E+03 E0= -.41216887E+03  d E =-.102254E+01
 Finite differences progress:
  Degree of freedom:   6/102
  Displacement:        2/  2
  Total:              12/204
 bond charge predicted
       N       E                     dE             d eps       ncg     rms          rms(c)
DAV:   1    -0.377626885588E+03   -0.92799E-03   -0.24838E+00   784   0.201E+00    0.223E-01
RMM:   2    -0.377630576491E+03   -0.36909E-02   -0.28225E-02   787   0.294E-01    0.453E-01
RMM:   3    -0.377631047186E+03   -0.47069E-03   -0.21634E-03   832   0.579E-02    0.519E-01
RMM:   4    -0.377630639395E+03    0.40779E-03   -0.93690E-04   789   0.368E-02    0.481E-01
RMM:   5    -0.377629988389E+03    0.65101E-03   -0.63337E-04   787   0.321E-02    0.354E-01
RMM:   6    -0.377629569819E+03    0.41857E-03   -0.44034E-04   788   0.266E-02    0.181E-01
RMM:   7    -0.377629519888E+03    0.49930E-04   -0.34012E-04   788   0.231E-02    0.172E-01
RMM:   8    -0.377629500163E+03    0.19726E-04   -0.19527E-04   789   0.177E-02    0.181E-01
RMM:   9    -0.377629366397E+03    0.13377E-03   -0.94090E-05   788   0.133E-02    0.569E-02
RMM:  10    -0.377629360524E+03    0.58728E-05   -0.20131E-05   788   0.626E-03    0.320E-02
RMM:  11    -0.377629356219E+03    0.43050E-05   -0.95283E-06   781   0.392E-03    0.279E-02
RMM:  12    -0.377629351794E+03    0.44255E-05   -0.84918E-06   761   0.361E-03    0.224E-02
RMM:  13    -0.377629349226E+03    0.25681E-05   -0.26448E-06   457   0.220E-03    0.105E-02
RMM:  14    -0.377629348752E+03    0.47425E-06   -0.14278E-06   408   0.172E-03
  14 F= -.41268162E+03 E0= -.41217023E+03  d E =-.102279E+01
 Finite differences progress:
  Degree of freedom:   7/102
  Displacement:        1/  2
  Total:              13/204
 bond charge predicted
       N       E                     dE             d eps       ncg     rms          rms(c)
DAV:   1    -0.377622154572E+03    0.71947E-02   -0.49344E+00   784   0.270E+00    0.270E-01
RMM:   2    -0.377628816540E+03   -0.66620E-02   -0.55276E-02   787   0.395E-01    0.528E-01
RMM:   3    -0.377631100052E+03   -0.22835E-02   -0.44873E-03   834   0.811E-02    0.818E-01
RMM:   4    -0.377628082873E+03    0.30172E-02   -0.12119E-03   790   0.420E-02    0.374E-01
RMM:   5    -0.377627810127E+03    0.27275E-03   -0.90914E-04   788   0.385E-02    0.346E-01
RMM:   6    -0.377627439988E+03    0.37014E-03   -0.63149E-04   789   0.314E-02    0.254E-01
RMM:   7    -0.377627361281E+03    0.78707E-04   -0.37705E-04   789   0.240E-02    0.216E-01
RMM:   8    -0.377627333591E+03    0.27690E-04   -0.38989E-04   789   0.250E-02    0.186E-01
RMM:   9    -0.377627157110E+03    0.17648E-03   -0.15802E-04   788   0.162E-02    0.954E-02
RMM:  10    -0.377627121821E+03    0.35290E-04   -0.33795E-05   787   0.791E-03    0.450E-02
RMM:  11    -0.377627114028E+03    0.77927E-05   -0.16647E-05   785   0.537E-03    0.305E-02
RMM:  12    -0.377627107164E+03    0.68641E-05   -0.14732E-05   777   0.467E-03    0.255E-02
RMM:  13    -0.377627103536E+03    0.36281E-05   -0.39199E-06   545   0.256E-03    0.126E-02
RMM:  14    -0.377627103081E+03    0.45531E-06   -0.17819E-06   419   0.187E-03
  15 F= -.41267941E+03 E0= -.41216823E+03  d E =-.102237E+01
 Finite differences progress:
  Degree of freedom:   7/102
  Displacement:        2/  2
  Total:              14/204
 bond charge predicted
       N       E                     dE             d eps       ncg     rms          rms(c)
DAV:   1    -0.377625397113E+03    0.17064E-02   -0.24597E+00   784   0.191E+00    0.198E-01
RMM:   2    -0.377629074693E+03   -0.36776E-02   -0.27800E-02   787   0.278E-01    0.463E-01
RMM:   3    -0.377629043032E+03    0.31661E-04   -0.21626E-03   817   0.582E-02    0.443E-01
RMM:   4    -0.377628776419E+03    0.26661E-03   -0.59597E-04   790   0.283E-02    0.401E-01
RMM:   5    -0.377628339091E+03    0.43733E-03   -0.51344E-04   788   0.285E-02    0.331E-01
RMM:   6    -0.377627986993E+03    0.35210E-03   -0.36921E-04   789   0.243E-02    0.180E-01
RMM:   7    -0.377627900680E+03    0.86313E-04   -0.24045E-04   785   0.194E-02    0.135E-01
RMM:   8    -0.377627967573E+03   -0.66894E-04   -0.20175E-04   786   0.177E-02    0.181E-01
RMM:   9    -0.377627827093E+03    0.14048E-03   -0.97585E-05   787   0.129E-02    0.847E-02
RMM:  10    -0.377627802018E+03    0.25075E-04   -0.29452E-05   786   0.761E-03    0.277E-02
RMM:  11    -0.377627799437E+03    0.25814E-05   -0.84288E-06   766   0.373E-03    0.252E-02
RMM:  12    -0.377627796667E+03    0.27695E-05   -0.63354E-06   690   0.313E-03    0.239E-02
RMM:  13    -0.377627793516E+03    0.31507E-05   -0.34032E-06   509   0.243E-03    0.116E-02
RMM:  14    -0.377627792844E+03    0.67225E-06   -0.12915E-06   407   0.164E-03
  16 F= -.41268009E+03 E0= -.41216868E+03  d E =-.102282E+01
 Finite differences progress:
  Degree of freedom:   8/102
  Displacement:        1/  2
  Total:              15/204
 bond charge predicted
       N       E                     dE             d eps       ncg     rms          rms(c)
DAV:   1    -0.377624247102E+03    0.35464E-02   -0.49238E+00   784   0.269E+00    0.275E-01
RMM:   2    -0.377631842603E+03   -0.75955E-02   -0.56280E-02   787   0.395E-01    0.699E-01
RMM:   3    -0.377629692124E+03    0.21505E-02   -0.41806E-03   820   0.822E-02    0.276E-01
RMM:   4    -0.377631092819E+03   -0.14007E-02   -0.12868E-03   789   0.443E-02    0.608E-01
RMM:   5    -0.377633141858E+03   -0.20490E-02   -0.11512E-03   786   0.363E-02    0.842E-01
RMM:   6    -0.377629383432E+03    0.37584E-02   -0.80885E-04   787   0.354E-02    0.246E-01
RMM:   7    -0.377629216092E+03    0.16734E-03   -0.46523E-04   790   0.276E-02    0.170E-01
RMM:   8    -0.377629256422E+03   -0.40331E-04   -0.39360E-04   788   0.250E-02    0.189E-01
RMM:   9    -0.377629118553E+03    0.13787E-03   -0.15721E-04   788   0.161E-02    0.121E-01
RMM:  10    -0.377629054216E+03    0.64338E-04   -0.44932E-05   786   0.901E-03    0.420E-02
RMM:  11    -0.377629050156E+03    0.40596E-05   -0.15717E-05   784   0.524E-03    0.340E-02
RMM:  12    -0.377629044069E+03    0.60873E-05   -0.10833E-05   776   0.408E-03    0.252E-02
RMM:  13    -0.377629039870E+03    0.41988E-05   -0.51984E-06   631   0.289E-03    0.148E-02
RMM:  14    -0.377629039064E+03    0.80641E-06   -0.16776E-06   426   0.180E-03
  17 F= -.41268133E+03 E0= -.41217019E+03  d E =-.102227E+01
 Finite differences progress:
  Degree of freedom:   8/102
  Displacement:        2/  2
  Total:              16/204
 bond charge predicted
       N       E                     dE             d eps       ncg     rms          rms(c)
DAV:   1    -0.377632901238E+03   -0.38614E-02   -0.25139E+00   784   0.191E+00    0.222E-01
RMM:   2    -0.377637633000E+03   -0.47318E-02   -0.30326E-02   786   0.287E-01    0.606E-01
RMM:   3    -0.377637131111E+03    0.50189E-03   -0.24702E-03   815   0.625E-02    0.550E-01
RMM:   4    -0.377636643613E+03    0.48750E-03   -0.81322E-04   790   0.332E-02    0.484E-01
RMM:   5    -0.377635876840E+03    0.76677E-03   -0.61167E-04   788   0.312E-02    0.366E-01
RMM:   6    -0.377635571604E+03    0.30524E-03   -0.48909E-04   790   0.277E-02    0.265E-01
RMM:   7    -0.377635392490E+03    0.17911E-03   -0.41627E-04   788   0.255E-02    0.196E-01
RMM:   8    -0.377635374514E+03    0.17975E-04   -0.33208E-04   790   0.229E-02    0.174E-01
RMM:   9    -0.377635250765E+03    0.12375E-03   -0.12618E-04   787   0.145E-02    0.112E-01
RMM:  10    -0.377635196997E+03    0.53768E-04   -0.35300E-05   786   0.784E-03    0.489E-02
RMM:  11    -0.377635188692E+03    0.83057E-05   -0.11677E-05   779   0.439E-03    0.333E-02
RMM:  12    -0.377635181184E+03    0.75080E-05   -0.16564E-05   781   0.489E-03    0.235E-02
RMM:  13    -0.377635176494E+03    0.46896E-05   -0.96303E-06   743   0.371E-03    0.106E-02
RMM:  14    -0.377635176357E+03    0.13696E-06   -0.17307E-06   431   0.179E-03
  18 F= -.41268406E+03 E0= -.41217281E+03  d E =-.102249E+01
 Finite differences progress:
  Degree of freedom:   9/102
  Displacement:        1/  2
  Total:              17/204
 bond charge predicted
       N       E                     dE             d eps       ncg     rms          rms(c)
DAV:   1    -0.377617383905E+03    0.17793E-01   -0.51518E+00   784   0.270E+00    0.365E-01
RMM:   2    -0.377631680104E+03   -0.14296E-01   -0.71101E-02   788   0.434E-01    0.119E+00
RMM:   3    -0.377629487825E+03    0.21923E-02   -0.63683E-03   795   0.101E-01    0.110E+00
RMM:   4    -0.377625399757E+03    0.40881E-02   -0.24036E-03   789   0.582E-02    0.763E-01
RMM:   5    -0.377623865145E+03    0.15346E-02   -0.15331E-03   789   0.498E-02    0.610E-01
RMM:   6    -0.377623152766E+03    0.71238E-03   -0.12367E-03   788   0.439E-02    0.523E-01
RMM:   7    -0.377622491434E+03    0.66133E-03   -0.13366E-03   789   0.453E-02    0.402E-01
RMM:   8    -0.377622142113E+03    0.34932E-03   -0.10612E-03   788   0.416E-02    0.244E-01
RMM:   9    -0.377621925163E+03    0.21695E-03   -0.36279E-04   787   0.245E-02    0.150E-01
RMM:  10    -0.377621779298E+03    0.14586E-03   -0.96293E-05   789   0.128E-02    0.631E-02
RMM:  11    -0.377621764192E+03    0.15106E-04   -0.31501E-05   785   0.699E-03    0.589E-02
RMM:  12    -0.377621751171E+03    0.13021E-04   -0.41467E-05   786   0.762E-03    0.599E-02
RMM:  13    -0.377621730694E+03    0.20478E-04   -0.30336E-05   783   0.657E-03    0.263E-02
RMM:  14    -0.377621727761E+03    0.29325E-05   -0.75933E-06   706   0.340E-03    0.167E-02
RMM:  15    -0.377621727183E+03    0.57822E-06   -0.23934E-06   462   0.210E-03
  19 F= -.41267740E+03 E0= -.41216614E+03  d E =-.102251E+01
 Finite differences progress:
  Degree of freedom:   9/102
  Displacement:        2/  2
  Total:              18/204
 bond charge predicted
       N       E                     dE             d eps       ncg     rms          rms(c)
DAV:   1    -0.377627168967E+03   -0.54412E-02   -0.25271E+00   784   0.198E+00    0.238E-01
RMM:   2    -0.377632883106E+03   -0.57141E-02   -0.32068E-02   787   0.303E-01    0.704E-01
RMM:   3    -0.377631800881E+03    0.10822E-02   -0.26159E-03   816   0.660E-02    0.593E-01
RMM:   4    -0.377630979841E+03    0.82104E-03   -0.87543E-04   788   0.354E-02    0.473E-01
RMM:   5    -0.377630478962E+03    0.50088E-03   -0.74402E-04   788   0.344E-02    0.419E-01
RMM:   6    -0.377630102391E+03    0.37657E-03   -0.56240E-04   790   0.300E-02    0.321E-01
RMM:   7    -0.377629877648E+03    0.22474E-03   -0.50895E-04   788   0.282E-02    0.239E-01
RMM:   8    -0.377629782788E+03    0.94860E-04   -0.42895E-04   790   0.263E-02    0.176E-01
RMM:   9    -0.377629653149E+03    0.12964E-03   -0.15615E-04   789   0.161E-02    0.109E-01
RMM:  10    -0.377629597903E+03    0.55246E-04   -0.38642E-05   786   0.811E-03    0.526E-02
RMM:  11    -0.377629584863E+03    0.13040E-04   -0.12432E-05   781   0.453E-03    0.335E-02
RMM:  12    -0.377629576810E+03    0.80533E-05   -0.19797E-05   783   0.533E-03    0.291E-02
RMM:  13    -0.377629570885E+03    0.59249E-05   -0.11633E-05   765   0.409E-03    0.200E-02
RMM:  14    -0.377629569276E+03    0.16095E-05   -0.28119E-06   483   0.220E-03    0.118E-02
RMM:  15    -0.377629568938E+03    0.33745E-06   -0.16010E-06   411   0.180E-03
  20 F= -.41268139E+03 E0= -.41217028E+03  d E =-.102221E+01
 Finite differences progress:
  Degree of freedom:  10/102
  Displacement:        1/  2
  Total:              19/204
 bond charge predicted
       N       E                     dE             d eps       ncg     rms          rms(c)
DAV:   1    -0.377622013781E+03    0.75555E-02   -0.49807E+00   784   0.274E+00    0.264E-01
RMM:   2    -0.377630002160E+03   -0.79884E-02   -0.56573E-02   787   0.401E-01    0.683E-01
RMM:   3    -0.377631092865E+03   -0.10907E-02   -0.45281E-03   821   0.816E-02    0.815E-01
RMM:   4    -0.377627755010E+03    0.33379E-02   -0.11992E-03   789   0.425E-02    0.332E-01
RMM:   5    -0.377627760671E+03   -0.56611E-05   -0.78020E-04   788   0.362E-02    0.383E-01
RMM:   6    -0.377627354589E+03    0.40608E-03   -0.57915E-04   790   0.307E-02    0.263E-01
RMM:   7    -0.377627228492E+03    0.12610E-03   -0.39984E-04   788   0.254E-02    0.190E-01
RMM:   8    -0.377627252475E+03   -0.23982E-04   -0.43175E-04   790   0.263E-02    0.193E-01
RMM:   9    -0.377627079845E+03    0.17263E-03   -0.17392E-04   788   0.170E-02    0.961E-02
RMM:  10    -0.377627037859E+03    0.41986E-04   -0.36305E-05   787   0.780E-03    0.445E-02
RMM:  11    -0.377627028048E+03    0.98108E-05   -0.14375E-05   783   0.481E-03    0.302E-02
RMM:  12    -0.377627021310E+03    0.67385E-05   -0.13976E-05   778   0.453E-03    0.236E-02
RMM:  13    -0.377627017058E+03    0.42513E-05   -0.58498E-06   661   0.302E-03    0.110E-02
RMM:  14    -0.377627016274E+03    0.78435E-06   -0.20961E-06   425   0.197E-03
  21 F= -.41267978E+03 E0= -.41216837E+03  d E =-.102281E+01
 Finite differences progress:
  Degree of freedom:  10/102
  Displacement:        2/  2
  Total:              20/204
 bond charge predicted
       N       E                     dE             d eps       ncg     rms          rms(c)
DAV:   1    -0.377627911684E+03   -0.89463E-03   -0.24950E+00   784   0.194E+00    0.189E-01
RMM:   2    -0.377631357134E+03   -0.34454E-02   -0.27918E-02   788   0.282E-01    0.405E-01
RMM:   3    -0.377631208684E+03    0.14845E-03   -0.20304E-03   821   0.567E-02    0.353E-01
RMM:   4    -0.377631853834E+03   -0.64515E-03   -0.60977E-04   789   0.279E-02    0.493E-01
RMM:   5    -0.377630879593E+03    0.97424E-03   -0.47027E-04   788   0.267E-02    0.339E-01
RMM:   6    -0.377630505627E+03    0.37397E-03   -0.33571E-04   789   0.240E-02    0.170E-01
RMM:   7    -0.377630464686E+03    0.40941E-04   -0.20660E-04   787   0.183E-02    0.137E-01
RMM:   8    -0.377630483549E+03   -0.18863E-04   -0.22212E-04   790   0.188E-02    0.152E-01
RMM:   9    -0.377630385824E+03    0.97724E-04   -0.96687E-05   786   0.128E-02    0.698E-02
RMM:  10    -0.377630364638E+03    0.21187E-04   -0.21621E-05   786   0.625E-03    0.332E-02
RMM:  11    -0.377630359753E+03    0.48842E-05   -0.85799E-06   768   0.380E-03    0.228E-02
RMM:  12    -0.377630356294E+03    0.34595E-05   -0.64401E-06   694   0.316E-03    0.174E-02
RMM:  13    -0.377630354427E+03    0.18667E-05   -0.25202E-06   454   0.213E-03    0.123E-02
RMM:  14    -0.377630353734E+03    0.69360E-06   -0.13355E-06   408   0.165E-03
  22 F= -.41268204E+03 E0= -.41217090E+03  d E =-.102228E+01
 Finite differences progress:
  Degree of freedom:  11/102
  Displacement:        1/  2
  Total:              21/204
 bond charge predicted
       N       E                     dE             d eps       ncg     rms          rms(c)
DAV:   1    -0.377621471821E+03    0.88826E-02   -0.49701E+00   784   0.275E+00    0.272E-01
RMM:   2    -0.377628232482E+03   -0.67607E-02   -0.56715E-02   788   0.403E-01    0.555E-01
RMM:   3    -0.377627035688E+03    0.11968E-02   -0.40205E-03   820   0.813E-02    0.294E-01
RMM:   4    -0.377627580228E+03   -0.54454E-03   -0.11521E-03   788   0.431E-02    0.496E-01
RMM:   5    -0.377629739648E+03   -0.21594E-02   -0.10078E-03   789   0.370E-02    0.775E-01
RMM:   6    -0.377626828816E+03    0.29108E-02   -0.59679E-04   788   0.296E-02    0.268E-01
RMM:   7    -0.377626588632E+03    0.24018E-03   -0.39814E-04   789   0.254E-02    0.181E-01
RMM:   8    -0.377626675889E+03   -0.87257E-04   -0.37329E-04   789   0.243E-02    0.229E-01
RMM:   9    -0.377626465826E+03    0.21006E-03   -0.18093E-04   788   0.175E-02    0.102E-01
RMM:  10    -0.377626419990E+03    0.45837E-04   -0.47280E-05   787   0.909E-03    0.451E-02
RMM:  11    -0.377626410659E+03    0.93310E-05   -0.16083E-05   783   0.510E-03    0.310E-02
RMM:  12    -0.377626404867E+03    0.57916E-05   -0.11230E-05   776   0.419E-03    0.232E-02
RMM:  13    -0.377626401394E+03    0.34728E-05   -0.49139E-06   617   0.280E-03    0.171E-02
RMM:  14    -0.377626400060E+03    0.13338E-05   -0.19578E-06   434   0.195E-03    0.105E-02
RMM:  15    -0.377626399767E+03    0.29366E-06   -0.16348E-06   415   0.180E-03
  23 F= -.41267930E+03 E0= -.41216785E+03  d E =-.102290E+01
 Finite differences progress:
  Degree of freedom:  11/102
  Displacement:        2/  2
  Total:              22/204
 bond charge predicted
       N       E                     dE             d eps       ncg     rms          rms(c)
DAV:   1    -0.377632815468E+03   -0.64154E-02   -0.25246E+00   784   0.194E+00    0.234E-01
RMM:   2    -0.377637247118E+03   -0.44316E-02   -0.30434E-02   786   0.292E-01    0.589E-01
RMM:   3    -0.377635667305E+03    0.15798E-02   -0.22908E-03   806   0.629E-02    0.257E-01
RMM:   4    -0.377637195630E+03   -0.15283E-02   -0.86283E-04   788   0.356E-02    0.628E-01
RMM:   5    -0.377637802663E+03   -0.60703E-03   -0.92493E-04   788   0.340E-02    0.691E-01
RMM:   6    -0.377635556838E+03    0.22458E-02   -0.57102E-04   790   0.303E-02    0.275E-01
RMM:   7    -0.377635328870E+03    0.22797E-03   -0.40498E-04   788   0.250E-02    0.193E-01
RMM:   8    -0.377635307339E+03    0.21531E-04   -0.33210E-04   790   0.231E-02    0.163E-01
RMM:   9    -0.377635191382E+03    0.11596E-03   -0.13339E-04   788   0.150E-02    0.850E-02
RMM:  10    -0.377635153258E+03    0.38125E-04   -0.33185E-05   786   0.748E-03    0.476E-02
RMM:  11    -0.377635144443E+03    0.88145E-05   -0.10903E-05   775   0.422E-03    0.311E-02
RMM:  12    -0.377635140295E+03    0.41477E-05   -0.10214E-05   770   0.394E-03    0.239E-02
RMM:  13    -0.377635136143E+03    0.41529E-05   -0.79811E-06   725   0.342E-03    0.158E-02
RMM:  14    -0.377635135132E+03    0.10108E-05   -0.19995E-06   443   0.190E-03    0.115E-02
RMM:  15    -0.377635134788E+03    0.34393E-06   -0.11519E-06   409   0.152E-03
  24 F= -.41268373E+03 E0= -.41217230E+03  d E =-.102285E+01
 Finite differences progress:
  Degree of freedom:  12/102
  Displacement:        1/  2
  Total:              23/204
 bond charge predicted
       N       E                     dE             d eps       ncg     rms          rms(c)
DAV:   1    -0.377616888420E+03    0.18247E-01   -0.51389E+00   784   0.274E+00    0.358E-01
RMM:   2    -0.377627920758E+03   -0.11032E-01   -0.68185E-02   788   0.433E-01    0.985E-01
RMM:   3    -0.377624825530E+03    0.30952E-02   -0.55599E-03   800   0.978E-02    0.650E-01
RMM:   4    -0.377629472054E+03   -0.46465E-02   -0.23752E-03   789   0.543E-02    0.117E+00
RMM:   5    -0.377623800885E+03    0.56712E-02   -0.15525E-03   788   0.496E-02    0.664E-01
RMM:   6    -0.377623094005E+03    0.70688E-03   -0.12049E-03   790   0.446E-02    0.520E-01
RMM:   7    -0.377622191037E+03    0.90297E-03   -0.11477E-03   788   0.421E-02    0.342E-01
RMM:   8    -0.377622052905E+03    0.13813E-03   -0.93000E-04   790   0.385E-02    0.266E-01
RMM:   9    -0.377621837362E+03    0.21554E-03   -0.36184E-04   787   0.244E-02    0.177E-01
RMM:  10    -0.377621687979E+03    0.14938E-03   -0.10743E-04   788   0.137E-02    0.897E-02
RMM:  11    -0.377621652112E+03    0.35867E-04   -0.30090E-05   787   0.715E-03    0.493E-02
RMM:  12    -0.377621641818E+03    0.10294E-04   -0.31649E-05   784   0.690E-03    0.454E-02
RMM:  13    -0.377621629046E+03    0.12772E-04   -0.29967E-05   783   0.646E-03    0.351E-02
RMM:  14    -0.377621623932E+03    0.51147E-05   -0.89950E-06   744   0.368E-03    0.209E-02
RMM:  15    -0.377621622675E+03    0.12564E-05   -0.30928E-06   492   0.235E-03    0.120E-02
RMM:  16    -0.377621622484E+03    0.19145E-06   -0.15847E-06   417   0.181E-03
  25 F= -.41267758E+03 E0= -.41216647E+03  d E =-.102222E+01
 Finite differences progress:
  Degree of freedom:  12/102
  Displacement:        2/  2
  Total:              24/204
 bond charge predicted
       N       E                     dE             d eps       ncg     rms          rms(c)
DAV:   1    -0.377626786369E+03   -0.51637E-02   -0.25234E+00   784   0.201E+00    0.224E-01
RMM:   2    -0.377630580497E+03   -0.37941E-02   -0.30121E-02   787   0.302E-01    0.473E-01
RMM:   3    -0.377629723872E+03    0.85663E-03   -0.22454E-03   823   0.632E-02    0.238E-01
RMM:   4    -0.377632531427E+03   -0.28076E-02   -0.90455E-04   787   0.347E-02    0.762E-01
RMM:   5    -0.377630565652E+03    0.19658E-02   -0.93874E-04   790   0.352E-02    0.499E-01
RMM:   6    -0.377629521426E+03    0.10442E-02   -0.42526E-04   788   0.271E-02    0.249E-01
RMM:   7    -0.377629391569E+03    0.12986E-03   -0.37207E-04   790   0.242E-02    0.206E-01
RMM:   8    -0.377629333781E+03    0.57788E-04   -0.33322E-04   788   0.233E-02    0.152E-01
RMM:   9    -0.377629222860E+03    0.11092E-03   -0.13021E-04   788   0.149E-02    0.682E-02
RMM:  10    -0.377629190872E+03    0.31988E-04   -0.26412E-05   786   0.671E-03    0.325E-02
RMM:  11    -0.377629187597E+03    0.32745E-05   -0.11876E-05   781   0.430E-03    0.350E-02
RMM:  12    -0.377629182227E+03    0.53704E-05   -0.10047E-05   773   0.391E-03    0.285E-02
RMM:  13    -0.377629177917E+03    0.43099E-05   -0.55774E-06   671   0.302E-03    0.121E-02
RMM:  14    -0.377629177629E+03    0.28773E-06   -0.21799E-06   434   0.205E-03
  26 F= -.41268162E+03 E0= -.41217068E+03  d E =-.102189E+01
 Finite differences progress:
  Degree of freedom:  13/102
  Displacement:        1/  2
  Total:              25/204
 bond charge predicted
       N       E                     dE             d eps       ncg     rms          rms(c)
DAV:   1    -0.377622271802E+03    0.69061E-02   -0.50044E+00   784   0.276E+00    0.304E-01
RMM:   2    -0.377627911361E+03   -0.56396E-02   -0.52573E-02   786   0.397E-01    0.430E-01
RMM:   3    -0.377628294656E+03   -0.38329E-03   -0.32771E-03   791   0.703E-02    0.471E-01
RMM:   4    -0.377633150286E+03   -0.48556E-02   -0.17068E-03   790   0.450E-02    0.102E+00
RMM:   5    -0.377628185490E+03    0.49648E-02   -0.17910E-03   788   0.503E-02    0.521E-01
RMM:   6    -0.377627113329E+03    0.10722E-02   -0.80831E-04   789   0.354E-02    0.263E-01
RMM:   7    -0.377627100693E+03    0.12636E-04   -0.60711E-04   788   0.319E-02    0.231E-01
RMM:   8    -0.377627013689E+03    0.87004E-04   -0.36505E-04   789   0.243E-02    0.198E-01
RMM:   9    -0.377626843583E+03    0.17011E-03   -0.12981E-04   788   0.148E-02    0.776E-02
RMM:  10    -0.377626818283E+03    0.25300E-04   -0.28945E-05   785   0.680E-03    0.481E-02
RMM:  11    -0.377626806421E+03    0.11862E-04   -0.18376E-05   783   0.538E-03    0.323E-02
RMM:  12    -0.377626800326E+03    0.60950E-05   -0.14165E-05   781   0.464E-03    0.278E-02
RMM:  13    -0.377626796559E+03    0.37670E-05   -0.51509E-06   637   0.294E-03    0.169E-02
RMM:  14    -0.377626795809E+03    0.75025E-06   -0.26472E-06   445   0.224E-03
  27 F= -.41267894E+03 E0= -.41216737E+03  d E =-.102313E+01
 Finite differences progress:
  Degree of freedom:  13/102
  Displacement:        2/  2
  Total:              26/204
 bond charge predicted
       N       E                     dE             d eps       ncg     rms          rms(c)
DAV:   1    -0.377625183686E+03    0.16129E-02   -0.24897E+00   784   0.195E+00    0.215E-01
RMM:   2    -0.377628042013E+03   -0.28583E-02   -0.26177E-02   788   0.279E-01    0.335E-01
RMM:   3    -0.377628246133E+03   -0.20412E-03   -0.15519E-03   791   0.482E-02    0.346E-01
RMM:   4    -0.377630433343E+03   -0.21872E-02   -0.87387E-04   789   0.324E-02    0.700E-01
RMM:   5    -0.377628322312E+03    0.21110E-02   -0.85568E-04   788   0.348E-02    0.429E-01
RMM:   6    -0.377627606936E+03    0.71538E-03   -0.46394E-04   790   0.272E-02    0.175E-01
RMM:   7    -0.377627618538E+03   -0.11603E-04   -0.29557E-04   788   0.219E-02    0.181E-01
RMM:   8    -0.377627568513E+03    0.50026E-04   -0.20153E-04   789   0.182E-02    0.155E-01
RMM:   9    -0.377627470465E+03    0.98048E-04   -0.73785E-05   788   0.116E-02    0.546E-02
RMM:  10    -0.377627458506E+03    0.11959E-04   -0.18718E-05   785   0.577E-03    0.306E-02
RMM:  11    -0.377627453984E+03    0.45220E-05   -0.90071E-06   773   0.379E-03    0.247E-02
RMM:  12    -0.377627450646E+03    0.33382E-05   -0.66249E-06   699   0.319E-03    0.200E-02
RMM:  13    -0.377627448542E+03    0.21036E-05   -0.23591E-06   443   0.209E-03    0.108E-02
RMM:  14    -0.377627448333E+03    0.20947E-06   -0.16880E-06   413   0.183E-03
  28 F= -.41267974E+03 E0= -.41216833E+03  d E =-.102281E+01
 Finite differences progress:
  Degree of freedom:  14/102
  Displacement:        1/  2
  Total:              27/204
 bond charge predicted
       N       E                     dE             d eps       ncg     rms          rms(c)
DAV:   1    -0.377624271206E+03    0.31773E-02   -0.49513E+00   784   0.276E+00    0.311E-01
RMM:   2    -0.377630610155E+03   -0.63389E-02   -0.53362E-02   787   0.394E-01    0.597E-01
RMM:   3    -0.377630141309E+03    0.46885E-03   -0.32722E-03   796   0.695E-02    0.413E-01
RMM:   4    -0.377635923849E+03   -0.57825E-02   -0.18249E-03   787   0.462E-02    0.110E+00
RMM:   5    -0.377630556739E+03    0.53671E-02   -0.16737E-03   789   0.486E-02    0.617E-01
RMM:   6    -0.377629208354E+03    0.13484E-02   -0.10018E-03   788   0.419E-02    0.264E-01
RMM:   7    -0.377629293698E+03   -0.85344E-04   -0.56600E-04   787   0.296E-02    0.313E-01
RMM:   8    -0.377629133930E+03    0.15977E-03   -0.44222E-04   790   0.271E-02    0.232E-01
RMM:   9    -0.377628893816E+03    0.24011E-03   -0.18478E-04   789   0.186E-02    0.644E-02
RMM:  10    -0.377628875755E+03    0.18061E-04   -0.38381E-05   788   0.804E-03    0.400E-02
RMM:  11    -0.377628868837E+03    0.69178E-05   -0.18337E-05   785   0.533E-03    0.379E-02
RMM:  12    -0.377628859121E+03    0.97159E-05   -0.13483E-05   784   0.456E-03    0.212E-02
RMM:  13    -0.377628857156E+03    0.19652E-05   -0.37644E-06   542   0.252E-03    0.160E-02
RMM:  14    -0.377628856793E+03    0.36314E-06   -0.25644E-06   454   0.217E-03
  29 F= -.41268114E+03 E0= -.41217009E+03  d E =-.102211E+01
 Finite differences progress:
  Degree of freedom:  14/102
  Displacement:        2/  2
  Total:              28/204
 bond charge predicted
       N       E                     dE             d eps       ncg     rms          rms(c)
DAV:   1    -0.377628237864E+03    0.61929E-03   -0.24909E+00   784   0.195E+00    0.224E-01
RMM:   2    -0.377631523623E+03   -0.32858E-02   -0.26657E-02   787   0.281E-01    0.439E-01
RMM:   3    -0.377631437483E+03    0.86140E-04   -0.18148E-03   791   0.523E-02    0.373E-01
RMM:   4    -0.377632901373E+03   -0.14639E-02   -0.75370E-04   790   0.302E-02    0.610E-01
RMM:   5    -0.377631311713E+03    0.15897E-02   -0.85902E-04   788   0.347E-02    0.395E-01
RMM:   6    -0.377630747523E+03    0.56419E-03   -0.46355E-04   790   0.279E-02    0.186E-01
RMM:   7    -0.377630754244E+03   -0.67205E-05   -0.31892E-04   789   0.220E-02    0.223E-01
RMM:   8    -0.377630650508E+03    0.10374E-03   -0.20937E-04   788   0.186E-02    0.166E-01
RMM:   9    -0.377630552260E+03    0.98248E-04   -0.98624E-05   789   0.138E-02    0.659E-02
RMM:  10    -0.377630534955E+03    0.17305E-04   -0.24736E-05   786   0.673E-03    0.292E-02
RMM:  11    -0.377630532922E+03    0.20331E-05   -0.88816E-06   779   0.376E-03    0.294E-02
RMM:  12    -0.377630529514E+03    0.34074E-05   -0.61225E-06   685   0.308E-03    0.241E-02
RMM:  13    -0.377630526273E+03    0.32409E-05   -0.33755E-06   506   0.246E-03    0.103E-02
RMM:  14    -0.377630525889E+03    0.38404E-06   -0.13785E-06   409   0.167E-03
  30 F= -.41268086E+03 E0= -.41216948E+03  d E =-.102275E+01
 Finite differences progress:
  Degree of freedom:  15/102
  Displacement:        1/  2
  Total:              29/204
 bond charge predicted
       N       E                     dE             d eps       ncg     rms          rms(c)
DAV:   1    -0.377620923678E+03    0.96026E-02   -0.50145E+00   784   0.276E+00    0.350E-01
RMM:   2    -0.377628543880E+03   -0.76202E-02   -0.54961E-02   787   0.403E-01    0.755E-01
RMM:   3    -0.377627249456E+03    0.12944E-02   -0.43373E-03   791   0.820E-02    0.534E-01
RMM:   4    -0.377632090507E+03   -0.48411E-02   -0.18927E-03   789   0.479E-02    0.102E+00
RMM:   5    -0.377627797083E+03    0.42934E-02   -0.20516E-03   788   0.519E-02    0.678E-01
RMM:   6    -0.377625928780E+03    0.18683E-02   -0.10820E-03   790   0.430E-02    0.279E-01
RMM:   7    -0.377625705721E+03    0.22306E-03   -0.71538E-04   788   0.332E-02    0.243E-01
RMM:   8    -0.377625677580E+03    0.28141E-04   -0.43309E-04   788   0.261E-02    0.231E-01
RMM:   9    -0.377625483046E+03    0.19453E-03   -0.19042E-04   788   0.183E-02    0.137E-01
RMM:  10    -0.377625414993E+03    0.68053E-04   -0.56780E-05   789   0.107E-02    0.440E-02
RMM:  11    -0.377625413255E+03    0.17382E-05   -0.19225E-05   784   0.580E-03    0.395E-02
RMM:  12    -0.377625408063E+03    0.51923E-05   -0.13570E-05   781   0.452E-03    0.389E-02
RMM:  13    -0.377625400287E+03    0.77761E-05   -0.78117E-06   751   0.352E-03    0.163E-02
RMM:  14    -0.377625398852E+03    0.14350E-05   -0.28636E-06   465   0.229E-03    0.104E-02
RMM:  15    -0.377625398655E+03    0.19625E-06   -0.15101E-06   410   0.173E-03
  31 F= -.41267962E+03 E0= -.41216847E+03  d E =-.102230E+01
 Finite differences progress:
  Degree of freedom:  15/102
  Displacement:        2/  2
  Total:              30/204
 bond charge predicted
       N       E                     dE             d eps       ncg     rms          rms(c)
DAV:   1    -0.377627516583E+03   -0.21177E-02   -0.24981E+00   784   0.200E+00    0.230E-01
RMM:   2    -0.377630875846E+03   -0.33593E-02   -0.27689E-02   787   0.291E-01    0.432E-01
RMM:   3    -0.377630246486E+03    0.62936E-03   -0.18011E-03   795   0.537E-02    0.190E-01
RMM:   4    -0.377631258811E+03   -0.10123E-02   -0.82555E-04   789   0.353E-02    0.490E-01
RMM:   5    -0.377633060894E+03   -0.18021E-02   -0.93698E-04   789   0.326E-02    0.759E-01
RMM:   6    -0.377630005195E+03    0.30557E-02   -0.44649E-04   788   0.262E-02    0.189E-01
RMM:   7    -0.377630045587E+03   -0.40392E-04   -0.35359E-04   790   0.242E-02    0.192E-01
RMM:   8    -0.377630002073E+03    0.43514E-04   -0.23324E-04   788   0.191E-02    0.169E-01
RMM:   9    -0.377629892038E+03    0.11004E-03   -0.98975E-05   788   0.133E-02    0.852E-02
RMM:  10    -0.377629863903E+03    0.28134E-04   -0.23826E-05   786   0.667E-03    0.294E-02
RMM:  11    -0.377629860807E+03    0.30964E-05   -0.11216E-05   783   0.428E-03    0.254E-02
RMM:  12    -0.377629857931E+03    0.28756E-05   -0.74485E-06   742   0.336E-03    0.254E-02
RMM:  13    -0.377629854646E+03    0.32856E-05   -0.32620E-06   492   0.245E-03    0.110E-02
RMM:  14    -0.377629854371E+03    0.27421E-06   -0.18278E-06   416   0.193E-03
  32 F= -.41268210E+03 E0= -.41217113E+03  d E =-.102195E+01
 Finite differences progress:
  Degree of freedom:  16/102
  Displacement:        1/  2
  Total:              31/204
 bond charge predicted
       N       E                     dE             d eps       ncg     rms          rms(c)
DAV:   1    -0.377621481531E+03    0.83731E-02   -0.49952E+00   784   0.276E+00    0.305E-01
RMM:   2    -0.377627434341E+03   -0.59528E-02   -0.52611E-02   788   0.394E-01    0.504E-01
RMM:   3    -0.377627753614E+03   -0.31927E-03   -0.32543E-03   792   0.693E-02    0.492E-01
RMM:   4    -0.377629953156E+03   -0.21995E-02   -0.13187E-03   791   0.393E-02    0.806E-01
RMM:   5    -0.377627412031E+03    0.25411E-02   -0.15483E-03   788   0.477E-02    0.577E-01
RMM:   6    -0.377626356726E+03    0.10553E-02   -0.97189E-04   790   0.417E-02    0.277E-01
RMM:   7    -0.377626368350E+03   -0.11624E-04   -0.63777E-04   788   0.328E-02    0.247E-01
RMM:   8    -0.377626306419E+03    0.61931E-04   -0.37388E-04   789   0.242E-02    0.228E-01
RMM:   9    -0.377626076371E+03    0.23005E-03   -0.16010E-04   787   0.163E-02    0.772E-02
RMM:  10    -0.377626047247E+03    0.29125E-04   -0.35138E-05   786   0.744E-03    0.445E-02
RMM:  11    -0.377626036109E+03    0.11138E-04   -0.20351E-05   783   0.569E-03    0.324E-02
RMM:  12    -0.377626030136E+03    0.59728E-05   -0.15397E-05   780   0.483E-03    0.310E-02
RMM:  13    -0.377626024971E+03    0.51655E-05   -0.52134E-06   624   0.290E-03    0.143E-02
RMM:  14    -0.377626024629E+03    0.34201E-06   -0.28940E-06   470   0.230E-03
  33 F= -.41267836E+03 E0= -.41216682E+03  d E =-.102306E+01
 Finite differences progress:
  Degree of freedom:  16/102
  Displacement:        2/  2
  Total:              32/204
 bond charge predicted
       N       E                     dE             d eps       ncg     rms          rms(c)
DAV:   1    -0.377627726980E+03   -0.17020E-02   -0.24903E+00   784   0.195E+00    0.214E-01
RMM:   2    -0.377631597569E+03   -0.38706E-02   -0.26841E-02   789   0.282E-01    0.616E-01
RMM:   3    -0.377630667653E+03    0.92992E-03   -0.16341E-03   794   0.502E-02    0.315E-01
RMM:   4    -0.377632287932E+03   -0.16203E-02   -0.71122E-04   793   0.304E-02    0.615E-01
RMM:   5    -0.377630708891E+03    0.15790E-02   -0.73138E-04   788   0.326E-02    0.400E-01
RMM:   6    -0.377630161080E+03    0.54781E-03   -0.51292E-04   790   0.281E-02    0.198E-01
RMM:   7    -0.377630151022E+03    0.10058E-04   -0.31815E-04   788   0.227E-02    0.172E-01
RMM:   8    -0.377630118786E+03    0.32236E-04   -0.22496E-04   789   0.190E-02    0.145E-01
RMM:   9    -0.377630022594E+03    0.96192E-04   -0.75071E-05   788   0.112E-02    0.646E-02
RMM:  10    -0.377630002398E+03    0.20196E-04   -0.18291E-05   784   0.548E-03    0.315E-02
RMM:  11    -0.377629998709E+03    0.36890E-05   -0.94885E-06   780   0.385E-03    0.257E-02
RMM:  12    -0.377629994486E+03    0.42237E-05   -0.90207E-06   755   0.370E-03    0.216E-02
RMM:  13    -0.377629991931E+03    0.25542E-05   -0.31457E-06   494   0.235E-03    0.116E-02
RMM:  14    -0.377629991879E+03    0.52038E-07   -0.13940E-06   414   0.168E-03
  34 F= -.41268227E+03 E0= -.41217132E+03  d E =-.102191E+01
 Finite differences progress:
  Degree of freedom:  17/102
  Displacement:        1/  2
  Total:              33/204
 bond charge predicted
       N       E                     dE             d eps       ncg     rms          rms(c)
DAV:   1    -0.377621878146E+03    0.81138E-02   -0.49589E+00   784   0.277E+00    0.301E-01
RMM:   2    -0.377630525920E+03   -0.86478E-02   -0.53944E-02   789   0.397E-01    0.984E-01
RMM:   3    -0.377627773507E+03    0.27524E-02   -0.33260E-03   797   0.715E-02    0.468E-01
RMM:   4    -0.377630233905E+03   -0.24604E-02   -0.12148E-03   791   0.402E-02    0.792E-01
RMM:   5    -0.377627810385E+03    0.24235E-02   -0.14703E-03   789   0.465E-02    0.558E-01
RMM:   6    -0.377626819871E+03    0.99051E-03   -0.10098E-03   789   0.399E-02    0.297E-01
RMM:   7    -0.377626794743E+03    0.25128E-04   -0.54793E-04   788   0.296E-02    0.268E-01
RMM:   8    -0.377626756635E+03    0.38108E-04   -0.42494E-04   789   0.260E-02    0.252E-01
RMM:   9    -0.377626476956E+03    0.27968E-03   -0.15626E-04   788   0.164E-02    0.675E-02
RMM:  10    -0.377626450757E+03    0.26199E-04   -0.38704E-05   786   0.799E-03    0.411E-02
RMM:  11    -0.377626445000E+03    0.57563E-05   -0.18484E-05   782   0.530E-03    0.389E-02
RMM:  12    -0.377626435146E+03    0.98543E-05   -0.16460E-05   785   0.499E-03    0.279E-02
RMM:  13    -0.377626431464E+03    0.36825E-05   -0.46438E-06   596   0.280E-03    0.147E-02
RMM:  14    -0.377626431079E+03    0.38491E-06   -0.23363E-06   446   0.214E-03
  35 F= -.41267873E+03 E0= -.41216724E+03  d E =-.102298E+01
 Finite differences progress:
  Degree of freedom:  17/102
  Displacement:        2/  2
  Total:              34/204
 bond charge predicted
       N       E                     dE             d eps       ncg     rms          rms(c)
DAV:   1    -0.377628675887E+03   -0.22444E-02   -0.24951E+00   784   0.196E+00    0.213E-01
RMM:   2    -0.377633309199E+03   -0.46333E-02   -0.27023E-02   787   0.284E-01    0.724E-01
RMM:   3    -0.377631645365E+03    0.16638E-02   -0.17263E-03   796   0.519E-02    0.334E-01
RMM:   4    -0.377633233395E+03   -0.15880E-02   -0.77123E-04   791   0.325E-02    0.616E-01
RMM:   5    -0.377631523513E+03    0.17099E-02   -0.66665E-04   788   0.314E-02    0.346E-01
RMM:   6    -0.377631170830E+03    0.35268E-03   -0.37395E-04   789   0.243E-02    0.201E-01
RMM:   7    -0.377631152993E+03    0.17837E-04   -0.36259E-04   789   0.238E-02    0.183E-01
RMM:   8    -0.377631121253E+03    0.31740E-04   -0.20353E-04   790   0.183E-02    0.161E-01
RMM:   9    -0.377631009429E+03    0.11182E-03   -0.66281E-05   788   0.104E-02    0.473E-02
RMM:  10    -0.377630995920E+03    0.13509E-04   -0.19394E-05   783   0.572E-03    0.257E-02
RMM:  11    -0.377630993359E+03    0.25615E-05   -0.87924E-06   776   0.367E-03    0.273E-02
RMM:  12    -0.377630989137E+03    0.42219E-05   -0.77241E-06   728   0.346E-03    0.193E-02
RMM:  13    -0.377630987247E+03    0.18903E-05   -0.23375E-06   449   0.208E-03    0.128E-02
RMM:  14    -0.377630986872E+03    0.37489E-06   -0.12098E-06   408   0.157E-03
  36 F= -.41268134E+03 E0= -.41217027E+03  d E =-.102215E+01
 Finite differences progress:
  Degree of freedom:  18/102
  Displacement:        1/  2
  Total:              35/204
 bond charge predicted
       N       E                     dE             d eps       ncg     rms          rms(c)
DAV:   1    -0.377620775673E+03    0.10212E-01   -0.50382E+00   784   0.278E+00    0.315E-01
RMM:   2    -0.377628255134E+03   -0.74795E-02   -0.54515E-02   787   0.407E-01    0.728E-01
RMM:   3    -0.377628391839E+03   -0.13671E-03   -0.39074E-03   796   0.762E-02    0.689E-01
RMM:   4    -0.377631297103E+03   -0.29053E-02   -0.22792E-03   788   0.544E-02    0.102E+00
RMM:   5    -0.377626523101E+03    0.47740E-02   -0.13791E-03   789   0.461E-02    0.497E-01
RMM:   6    -0.377625864298E+03    0.65880E-03   -0.74402E-04   789   0.347E-02    0.290E-01
RMM:   7    -0.377625660506E+03    0.20379E-03   -0.70223E-04   789   0.330E-02    0.254E-01
RMM:   8    -0.377625684638E+03   -0.24132E-04   -0.41691E-04   788   0.257E-02    0.256E-01
RMM:   9    -0.377625422942E+03    0.26170E-03   -0.18017E-04   789   0.176E-02    0.983E-02
RMM:  10    -0.377625373040E+03    0.49903E-04   -0.47273E-05   789   0.890E-03    0.418E-02
RMM:  11    -0.377625367258E+03    0.57821E-05   -0.16831E-05   785   0.518E-03    0.379E-02
RMM:  12    -0.377625361417E+03    0.58412E-05   -0.13059E-05   779   0.438E-03    0.354E-02
RMM:  13    -0.377625354610E+03    0.68068E-05   -0.74498E-06   737   0.343E-03    0.177E-02
RMM:  14    -0.377625353054E+03    0.15557E-05   -0.32119E-06   489   0.242E-03    0.114E-02
RMM:  15    -0.377625352887E+03    0.16710E-06   -0.17126E-06   415   0.185E-03
  37 F= -.41267955E+03 E0= -.41216810E+03  d E =-.102291E+01
 Finite differences progress:
  Degree of freedom:  18/102
  Displacement:        2/  2
  Total:              36/204
 bond charge predicted
       N       E                     dE             d eps       ncg     rms          rms(c)
DAV:   1    -0.377627133789E+03   -0.17807E-02   -0.24956E+00   784   0.200E+00    0.213E-01
RMM:   2    -0.377630518593E+03   -0.33848E-02   -0.28390E-02   787   0.294E-01    0.399E-01
RMM:   3    -0.377631456401E+03   -0.93781E-03   -0.21831E-03   829   0.586E-02    0.540E-01
RMM:   4    -0.377631515768E+03   -0.59367E-04   -0.10266E-03   789   0.377E-02    0.574E-01
RMM:   5    -0.377630075907E+03    0.14399E-02   -0.56900E-04   788   0.302E-02    0.297E-01
RMM:   6    -0.377629798045E+03    0.27786E-03   -0.34183E-04   789   0.238E-02    0.171E-01
RMM:   7    -0.377629809890E+03   -0.11845E-04   -0.32942E-04   788   0.226E-02    0.183E-01
RMM:   8    -0.377629751849E+03    0.58041E-04   -0.20608E-04   789   0.182E-02    0.155E-01
RMM:   9    -0.377629657233E+03    0.94615E-04   -0.82512E-05   789   0.118E-02    0.681E-02
RMM:  10    -0.377629634237E+03    0.22996E-04   -0.22562E-05   786   0.617E-03    0.320E-02
RMM:  11    -0.377629630763E+03    0.34749E-05   -0.84045E-06   772   0.366E-03    0.252E-02
RMM:  12    -0.377629627081E+03    0.36812E-05   -0.67861E-06   740   0.322E-03    0.218E-02
RMM:  13    -0.377629624509E+03    0.25720E-05   -0.27056E-06   461   0.221E-03    0.124E-02
RMM:  14    -0.377629623728E+03    0.78162E-06   -0.15649E-06   407   0.180E-03
  38 F= -.41268184E+03 E0= -.41217063E+03  d E =-.102243E+01
 Finite differences progress:
  Degree of freedom:  19/102
  Displacement:        1/  2
  Total:              37/204
 bond charge predicted
       N       E                     dE             d eps       ncg     rms          rms(c)
DAV:   1    -0.377622131061E+03    0.74934E-02   -0.49621E+00   784   0.271E+00    0.269E-01
RMM:   2    -0.377628709144E+03   -0.65781E-02   -0.55638E-02   787   0.395E-01    0.516E-01
RMM:   3    -0.377629106981E+03   -0.39784E-03   -0.42670E-03   824   0.806E-02    0.554E-01
RMM:   4    -0.377629427432E+03   -0.32045E-03   -0.11486E-03   792   0.384E-02    0.627E-01
RMM:   5    -0.377627646285E+03    0.17811E-02   -0.93719E-04   788   0.386E-02    0.318E-01
RMM:   6    -0.377627318869E+03    0.32742E-03   -0.67158E-04   789   0.330E-02    0.222E-01
RMM:   7    -0.377627405837E+03   -0.86967E-04   -0.40128E-04   788   0.250E-02    0.266E-01
RMM:   8    -0.377627212873E+03    0.19296E-03   -0.37724E-04   790   0.248E-02    0.166E-01
RMM:   9    -0.377627093493E+03    0.11938E-03   -0.15534E-04   787   0.164E-02    0.755E-02
RMM:  10    -0.377627070126E+03    0.23367E-04   -0.32084E-05   786   0.743E-03    0.519E-02
RMM:  11    -0.377627059423E+03    0.10704E-04   -0.12107E-05   781   0.441E-03    0.323E-02
RMM:  12    -0.377627052325E+03    0.70977E-05   -0.12801E-05   778   0.442E-03    0.219E-02
RMM:  13    -0.377627048487E+03    0.38381E-05   -0.62021E-06   680   0.311E-03    0.125E-02
RMM:  14    -0.377627047475E+03    0.10116E-05   -0.23639E-06   441   0.209E-03    0.883E-03
RMM:  15    -0.377627047419E+03    0.56258E-07   -0.11956E-06   407   0.156E-03
  39 F= -.41267941E+03 E0= -.41216812E+03  d E =-.102259E+01
 Finite differences progress:
  Degree of freedom:  19/102
  Displacement:        2/  2
  Total:              38/204
 bond charge predicted
       N       E                     dE             d eps       ncg     rms          rms(c)
DAV:   1    -0.377626221761E+03    0.82571E-03   -0.24777E+00   784   0.191E+00    0.185E-01
RMM:   2    -0.377629717048E+03   -0.34953E-02   -0.27686E-02   787   0.278E-01    0.416E-01
RMM:   3    -0.377630097529E+03   -0.38048E-03   -0.21661E-03   833   0.566E-02    0.472E-01
RMM:   4    -0.377629458237E+03    0.63929E-03   -0.55679E-04   790   0.276E-02    0.356E-01
RMM:   5    -0.377629069358E+03    0.38888E-03   -0.41271E-04   788   0.260E-02    0.273E-01
RMM:   6    -0.377628864624E+03    0.20473E-03   -0.31131E-04   789   0.224E-02    0.181E-01
RMM:   7    -0.377628801584E+03    0.63040E-04   -0.22184E-04   787   0.187E-02    0.141E-01
RMM:   8    -0.377628812766E+03   -0.11182E-04   -0.20570E-04   790   0.181E-02    0.153E-01
RMM:   9    -0.377628720459E+03    0.92307E-04   -0.96899E-05   787   0.129E-02    0.791E-02
RMM:  10    -0.377628695491E+03    0.24968E-04   -0.27421E-05   787   0.715E-03    0.300E-02
RMM:  11    -0.377628691166E+03    0.43254E-05   -0.81300E-06   759   0.368E-03    0.200E-02
RMM:  12    -0.377628688342E+03    0.28245E-05   -0.58205E-06   670   0.303E-03    0.166E-02
RMM:  13    -0.377628686374E+03    0.19674E-05   -0.30207E-06   485   0.229E-03    0.114E-02
RMM:  14    -0.377628685800E+03    0.57409E-06   -0.11451E-06   408   0.156E-03
  40 F= -.41268085E+03 E0= -.41216958E+03  d E =-.102255E+01
 Finite differences progress:
  Degree of freedom:  20/102
  Displacement:        1/  2
  Total:              39/204
 bond charge predicted
       N       E                     dE             d eps       ncg     rms          rms(c)
DAV:   1    -0.377623311475E+03    0.53749E-02   -0.49421E+00   784   0.271E+00    0.265E-01
RMM:   2    -0.377631595494E+03   -0.82840E-02   -0.56142E-02   785   0.395E-01    0.751E-01
RMM:   3    -0.377631684294E+03   -0.88801E-04   -0.45622E-03   823   0.823E-02    0.753E-01
RMM:   4    -0.377629233097E+03    0.24512E-02   -0.11384E-03   789   0.409E-02    0.407E-01
RMM:   5    -0.377629091361E+03    0.14174E-03   -0.85314E-04   788   0.374E-02    0.422E-01
RMM:   6    -0.377628551983E+03    0.53938E-03   -0.64568E-04   790   0.323E-02    0.237E-01
RMM:   7    -0.377628434393E+03    0.11759E-03   -0.43635E-04   788   0.264E-02    0.199E-01
RMM:   8    -0.377628520381E+03   -0.85988E-04   -0.37416E-04   790   0.240E-02    0.239E-01
RMM:   9    -0.377628279255E+03    0.24113E-03   -0.21428E-04   788   0.193E-02    0.103E-01
RMM:  10    -0.377628232287E+03    0.46968E-04   -0.58960E-05   788   0.104E-02    0.332E-02
RMM:  11    -0.377628227310E+03    0.49769E-05   -0.14736E-05   782   0.486E-03    0.312E-02
RMM:  12    -0.377628220798E+03    0.65125E-05   -0.11742E-05   775   0.424E-03    0.223E-02
RMM:  13    -0.377628217510E+03    0.32880E-05   -0.52204E-06   633   0.288E-03    0.141E-02
RMM:  14    -0.377628216803E+03    0.70651E-06   -0.16123E-06   428   0.177E-03
  41 F= -.41268063E+03 E0= -.41216937E+03  d E =-.102252E+01
 Finite differences progress:
  Degree of freedom:  20/102
  Displacement:        2/  2
  Total:              40/204
 bond charge predicted
       N       E                     dE             d eps       ncg     rms          rms(c)
DAV:   1    -0.377632815598E+03   -0.45981E-02   -0.25153E+00   784   0.192E+00    0.224E-01
RMM:   2    -0.377638812987E+03   -0.59974E-02   -0.30792E-02   786   0.290E-01    0.748E-01
RMM:   3    -0.377637392545E+03    0.14204E-02   -0.25337E-03   805   0.630E-02    0.606E-01
RMM:   4    -0.377636374708E+03    0.10178E-02   -0.88357E-04   789   0.357E-02    0.452E-01
RMM:   5    -0.377635920702E+03    0.45401E-03   -0.59975E-04   789   0.311E-02    0.395E-01
RMM:   6    -0.377635638469E+03    0.28223E-03   -0.46735E-04   789   0.272E-02    0.298E-01
RMM:   7    -0.377635369402E+03    0.26907E-03   -0.44140E-04   789   0.262E-02    0.208E-01
RMM:   8    -0.377635363432E+03    0.59703E-05   -0.36721E-04   789   0.239E-02    0.209E-01
RMM:   9    -0.377635194656E+03    0.16878E-03   -0.15716E-04   789   0.163E-02    0.112E-01
RMM:  10    -0.377635146661E+03    0.47995E-04   -0.47486E-05   787   0.947E-03    0.474E-02
RMM:  11    -0.377635135215E+03    0.11446E-04   -0.12504E-05   779   0.450E-03    0.304E-02
RMM:  12    -0.377635130899E+03    0.43160E-05   -0.13088E-05   777   0.440E-03    0.286E-02
RMM:  13    -0.377635126606E+03    0.42924E-05   -0.86660E-06   729   0.351E-03    0.216E-02
RMM:  14    -0.377635124381E+03    0.22256E-05   -0.28358E-06   477   0.223E-03    0.101E-02
RMM:  15    -0.377635124306E+03    0.74935E-07   -0.15162E-06   412   0.175E-03
  42 F= -.41268409E+03 E0= -.41217316E+03  d E =-.102186E+01
 Finite differences progress:
  Degree of freedom:  21/102
  Displacement:        1/  2
  Total:              41/204
 bond charge predicted
       N       E                     dE             d eps       ncg     rms          rms(c)
DAV:   1    -0.377617269020E+03    0.17855E-01   -0.51415E+00   784   0.272E+00    0.361E-01
RMM:   2    -0.377632846075E+03   -0.15577E-01   -0.70997E-02   788   0.435E-01    0.126E+00
RMM:   3    -0.377629116494E+03    0.37296E-02   -0.62768E-03   796   0.101E-01    0.108E+00
RMM:   4    -0.377625412524E+03    0.37040E-02   -0.24116E-03   788   0.594E-02    0.766E-01
RMM:   5    -0.377623980013E+03    0.14325E-02   -0.15009E-03   789   0.493E-02    0.633E-01
RMM:   6    -0.377623312744E+03    0.66727E-03   -0.12324E-03   788   0.434E-02    0.527E-01
RMM:   7    -0.377622433397E+03    0.87935E-03   -0.12879E-03   789   0.441E-02    0.370E-01
RMM:   8    -0.377622239763E+03    0.19363E-03   -0.10540E-03   789   0.407E-02    0.289E-01
RMM:   9    -0.377622011582E+03    0.22818E-03   -0.39022E-04   788   0.253E-02    0.214E-01
RMM:  10    -0.377621824345E+03    0.18724E-03   -0.12151E-04   788   0.150E-02    0.971E-02
RMM:  11    -0.377621781647E+03    0.42698E-04   -0.35001E-05   786   0.784E-03    0.532E-02
RMM:  12    -0.377621768542E+03    0.13105E-04   -0.38097E-05   783   0.752E-03    0.524E-02
RMM:  13    -0.377621753672E+03    0.14871E-04   -0.35718E-05   784   0.698E-03    0.423E-02
RMM:  14    -0.377621744815E+03    0.88566E-05   -0.13596E-05   777   0.449E-03    0.207E-02
RMM:  15    -0.377621743731E+03    0.10842E-05   -0.43585E-06   576   0.273E-03    0.126E-02
RMM:  16    -0.377621743330E+03    0.40047E-06   -0.15131E-06   418   0.179E-03
  43 F= -.41267733E+03 E0= -.41216571E+03  d E =-.102324E+01
 Finite differences progress:
  Degree of freedom:  21/102
  Displacement:        2/  2
  Total:              42/204
 bond charge predicted
       N       E                     dE             d eps       ncg     rms          rms(c)
DAV:   1    -0.377621955262E+03   -0.21153E-03   -0.25154E+00   784   0.199E+00    0.293E-01
RMM:   2    -0.377626540836E+03   -0.45856E-02   -0.33812E-02   788   0.313E-01    0.568E-01
RMM:   3    -0.377626116898E+03    0.42394E-03   -0.26775E-03   804   0.687E-02    0.518E-01
RMM:   4    -0.377626471803E+03   -0.35490E-03   -0.90505E-04   794   0.345E-02    0.586E-01
RMM:   5    -0.377625563338E+03    0.90847E-03   -0.11514E-03   788   0.420E-02    0.478E-01
RMM:   6    -0.377624945324E+03    0.61801E-03   -0.10360E-03   790   0.406E-02    0.327E-01
RMM:   7    -0.377624854439E+03    0.90886E-04   -0.66881E-04   788   0.321E-02    0.296E-01
RMM:   8    -0.377624595427E+03    0.25901E-03   -0.43948E-04   789   0.268E-02    0.173E-01
RMM:   9    -0.377624473280E+03    0.12215E-03   -0.14807E-04   789   0.161E-02    0.111E-01
RMM:  10    -0.377624422593E+03    0.50687E-04   -0.39425E-05   787   0.837E-03    0.563E-02
RMM:  11    -0.377624410590E+03    0.12003E-04   -0.13254E-05   779   0.487E-03    0.337E-02
RMM:  12    -0.377624403277E+03    0.73129E-05   -0.18031E-05   782   0.519E-03    0.306E-02
RMM:  13    -0.377624397896E+03    0.53810E-05   -0.13168E-05   775   0.434E-03    0.242E-02
RMM:  14    -0.377624395183E+03    0.27124E-05   -0.39657E-06   548   0.258E-03    0.126E-02
RMM:  15    -0.377624394917E+03    0.26634E-06   -0.16740E-06   418   0.185E-03
  44 F= -.41267630E+03 E0= -.41216489E+03  d E =-.102282E+01
 Finite differences progress:
  Degree of freedom:  22/102
  Displacement:        1/  2
  Total:              43/204
 bond charge predicted
       N       E                     dE             d eps       ncg     rms          rms(c)
DAV:   1    -0.377626851410E+03   -0.24562E-02   -0.49519E+00   784   0.274E+00    0.446E-01
RMM:   2    -0.377633726646E+03   -0.68752E-02   -0.62656E-02   788   0.419E-01    0.570E-01
RMM:   3    -0.377634224300E+03   -0.49765E-03   -0.47085E-03   809   0.870E-02    0.579E-01
RMM:   4    -0.377645024376E+03   -0.10800E-01   -0.33489E-03   792   0.616E-02    0.153E+00
RMM:   5    -0.377634671824E+03    0.10353E-01   -0.28874E-03   788   0.683E-02    0.726E-01
RMM:   6    -0.377633044337E+03    0.16275E-02   -0.19123E-03   790   0.565E-02    0.511E-01
RMM:   7    -0.377632205890E+03    0.83845E-03   -0.11139E-03   788   0.426E-02    0.271E-01
RMM:   8    -0.377632034972E+03    0.17092E-03   -0.53952E-04   789   0.303E-02    0.195E-01
RMM:   9    -0.377631893489E+03    0.14148E-03   -0.17049E-04   788   0.170E-02    0.129E-01
RMM:  10    -0.377631810285E+03    0.83205E-04   -0.52004E-05   787   0.940E-03    0.497E-02
RMM:  11    -0.377631799711E+03    0.10573E-04   -0.20712E-05   784   0.573E-03    0.370E-02
RMM:  12    -0.377631792015E+03    0.76961E-05   -0.22503E-05   782   0.578E-03    0.303E-02
RMM:  13    -0.377631786528E+03    0.54871E-05   -0.12422E-05   776   0.433E-03    0.190E-02
RMM:  14    -0.377631785134E+03    0.13940E-05   -0.42179E-06   570   0.267E-03    0.110E-02
RMM:  15    -0.377631785501E+03   -0.36728E-06   -0.16706E-06   425   0.187E-03
  45 F= -.41268446E+03 E0= -.41217333E+03  d E =-.102228E+01
 Finite differences progress:
  Degree of freedom:  22/102
  Displacement:        2/  2
  Total:              44/204
 bond charge predicted
       N       E                     dE             d eps       ncg     rms          rms(c)
DAV:   1    -0.377627313816E+03    0.44713E-02   -0.25005E+00   784   0.193E+00    0.222E-01
RMM:   2    -0.377630260245E+03   -0.29464E-02   -0.28584E-02   788   0.289E-01    0.267E-01
RMM:   3    -0.377631887769E+03   -0.16275E-02   -0.22380E-03   809   0.607E-02    0.619E-01
RMM:   4    -0.377631781876E+03    0.10589E-03   -0.88147E-04   791   0.345E-02    0.557E-01
RMM:   5    -0.377630213790E+03    0.15681E-02   -0.63082E-04   788   0.313E-02    0.263E-01
RMM:   6    -0.377629913592E+03    0.30020E-03   -0.47019E-04   790   0.272E-02    0.153E-01
RMM:   7    -0.377629996723E+03   -0.83131E-04   -0.35764E-04   788   0.236E-02    0.190E-01
RMM:   8    -0.377629864447E+03    0.13228E-03   -0.18559E-04   789   0.174E-02    0.137E-01
RMM:   9    -0.377629782793E+03    0.81653E-04   -0.51700E-05   787   0.978E-03    0.491E-02
RMM:  10    -0.377629776671E+03    0.61221E-05   -0.16510E-05   785   0.547E-03    0.290E-02
RMM:  11    -0.377629774454E+03    0.22176E-05   -0.82675E-06   754   0.364E-03    0.283E-02
RMM:  12    -0.377629770880E+03    0.35732E-05   -0.51161E-06   630   0.288E-03    0.198E-02
RMM:  13    -0.377629769008E+03    0.18723E-05   -0.23715E-06   443   0.211E-03    0.101E-02
RMM:  14    -0.377629768819E+03    0.18903E-06   -0.14749E-06   410   0.171E-03
  46 F= -.41268222E+03 E0= -.41217122E+03  d E =-.102200E+01
 Finite differences progress:
  Degree of freedom:  23/102
  Displacement:        1/  2
  Total:              45/204
 bond charge predicted
       N       E                     dE             d eps       ncg     rms          rms(c)
DAV:   1    -0.377622384597E+03    0.73844E-02   -0.49552E+00   784   0.272E+00    0.386E-01
RMM:   2    -0.377631850093E+03   -0.94655E-02   -0.63768E-02   788   0.421E-01    0.884E-01
RMM:   3    -0.377630568087E+03    0.12820E-02   -0.44706E-03   824   0.830E-02    0.777E-01
RMM:   4    -0.377629175266E+03    0.13928E-02   -0.13428E-03   790   0.450E-02    0.593E-01
RMM:   5    -0.377629850897E+03   -0.67563E-03   -0.17441E-03   788   0.522E-02    0.749E-01
RMM:   6    -0.377628585184E+03    0.12657E-02   -0.18840E-03   790   0.539E-02    0.484E-01
RMM:   7    -0.377627729956E+03    0.85523E-03   -0.13452E-03   788   0.460E-02    0.313E-01
RMM:   8    -0.377627751555E+03   -0.21599E-04   -0.78194E-04   790   0.352E-02    0.328E-01
RMM:   9    -0.377627297558E+03    0.45400E-03   -0.30290E-04   789   0.226E-02    0.153E-01
RMM:  10    -0.377627219149E+03    0.78409E-04   -0.91203E-05   789   0.137E-02    0.609E-02
RMM:  11    -0.377627202333E+03    0.16817E-04   -0.22107E-05   784   0.610E-03    0.427E-02
RMM:  12    -0.377627195560E+03    0.67724E-05   -0.24617E-05   784   0.609E-03    0.513E-02
RMM:  13    -0.377627181164E+03    0.14397E-04   -0.27041E-05   783   0.627E-03    0.310E-02
RMM:  14    -0.377627175764E+03    0.53993E-05   -0.97269E-06   765   0.388E-03    0.167E-02
RMM:  15    -0.377627175286E+03    0.47788E-06   -0.30975E-06   489   0.237E-03
  47 F= -.41267932E+03 E0= -.41216778E+03  d E =-.102308E+01
 Finite differences progress:
  Degree of freedom:  23/102
  Displacement:        2/  2
  Total:              46/204
 bond charge predicted
       N       E                     dE             d eps       ncg     rms          rms(c)
DAV:   1    -0.377629632057E+03   -0.24563E-02   -0.25179E+00   784   0.194E+00    0.215E-01
RMM:   2    -0.377632630140E+03   -0.29981E-02   -0.29581E-02   788   0.295E-01    0.265E-01
RMM:   3    -0.377632918103E+03   -0.28796E-03   -0.22626E-03   832   0.623E-02    0.328E-01
RMM:   4    -0.377634967550E+03   -0.20494E-02   -0.86114E-04   788   0.338E-02    0.705E-01
RMM:   5    -0.377632581554E+03    0.23860E-02   -0.54497E-04   787   0.275E-02    0.295E-01
[...]
DAV:   1    -0.377626596090E+03   -0.17704E-03   -0.24865E+00   784   0.196E+00    0.214E-01
RMM:   2    -0.377629839905E+03   -0.32438E-02   -0.26452E-02   789   0.282E-01    0.423E-01
RMM:   3    -0.377630150545E+03   -0.31064E-03   -0.16912E-03   795   0.495E-02    0.440E-01
RMM:   4    -0.377629927977E+03    0.22257E-03   -0.60562E-04   792   0.284E-02    0.404E-01
RMM:   5    -0.377629587646E+03    0.34033E-03   -0.67515E-04   788   0.321E-02    0.383E-01
RMM:   6    -0.377629053808E+03    0.53384E-03   -0.47292E-04   790   0.274E-02    0.176E-01
RMM:   7    -0.377629076524E+03   -0.22716E-04   -0.31238E-04   788   0.222E-02    0.202E-01
RMM:   8    -0.377629021268E+03    0.55256E-04   -0.20736E-04   790   0.183E-02    0.171E-01
RMM:   9    -0.377628895997E+03    0.12527E-03   -0.88471E-05   788   0.130E-02    0.488E-02
RMM:  10    -0.377628890289E+03    0.57073E-05   -0.17432E-05   783   0.558E-03    0.308E-02
RMM:  11    -0.377628886544E+03    0.37454E-05   -0.96731E-06   781   0.390E-03    0.290E-02
RMM:  12    -0.377628882252E+03    0.42915E-05   -0.77097E-06   737   0.343E-03    0.222E-02
RMM:  13    -0.377628879391E+03    0.28611E-05   -0.28013E-06   455   0.225E-03    0.871E-03
RMM:  14    -0.377628879296E+03    0.95599E-07   -0.15874E-06   413   0.178E-03
  76 F= -.41268122E+03 E0= -.41217008E+03  d E =-.102228E+01
 Finite differences progress:
  Degree of freedom:  38/102
  Displacement:        1/  2
  Total:              75/204
 bond charge predicted
       N       E                     dE             d eps       ncg     rms          rms(c)
DAV:   1    -0.377622788341E+03    0.60910E-02   -0.49752E+00   784   0.276E+00    0.297E-01
RMM:   2    -0.377628910952E+03   -0.61226E-02   -0.53229E-02   789   0.397E-01    0.553E-01
RMM:   3    -0.377628266438E+03    0.64451E-03   -0.31226E-03   800   0.676E-02    0.302E-01
RMM:   4    -0.377635656990E+03   -0.73906E-02   -0.19437E-03   788   0.482E-02    0.117E+00
RMM:   5    -0.377629020708E+03    0.66363E-02   -0.15549E-03   788   0.447E-02    0.590E-01
RMM:   6    -0.377627772376E+03    0.12483E-02   -0.93867E-04   788   0.406E-02    0.271E-01
RMM:   7    -0.377627860018E+03   -0.87642E-04   -0.57205E-04   788   0.298E-02    0.319E-01
RMM:   8    -0.377627658705E+03    0.20131E-03   -0.45221E-04   788   0.276E-02    0.218E-01
RMM:   9    -0.377627448419E+03    0.21029E-03   -0.18858E-04   788   0.188E-02    0.571E-02
RMM:  10    -0.377627431644E+03    0.16775E-04   -0.36237E-05   786   0.769E-03    0.405E-02
RMM:  11    -0.377627428150E+03    0.34936E-05   -0.16962E-05   783   0.509E-03    0.493E-02
RMM:  12    -0.377627414907E+03    0.13243E-04   -0.12016E-05   779   0.433E-03    0.216E-02
RMM:  13    -0.377627412303E+03    0.26041E-05   -0.47273E-06   614   0.277E-03    0.132E-02
RMM:  14    -0.377627411362E+03    0.94191E-06   -0.39706E-06   529   0.263E-03
  77 F= -.41267964E+03 E0= -.41216833E+03  d E =-.102262E+01
 Finite differences progress:
  Degree of freedom:  38/102
  Displacement:        2/  2
  Total:              76/204
 bond charge predicted
       N       E                     dE             d eps       ncg     rms          rms(c)
DAV:   1    -0.377627973976E+03   -0.56167E-03   -0.24915E+00   784   0.196E+00    0.220E-01
RMM:   2    -0.377631158255E+03   -0.31843E-02   -0.26482E-02   787   0.282E-01    0.409E-01
RMM:   3    -0.377630969895E+03    0.18836E-03   -0.16997E-03   796   0.507E-02    0.291E-01
RMM:   4    -0.377634843971E+03   -0.38741E-02   -0.11169E-03   788   0.358E-02    0.900E-01
RMM:   5    -0.377630770839E+03    0.40731E-02   -0.73356E-04   788   0.328E-02    0.331E-01
RMM:   6    -0.377630474455E+03    0.29638E-03   -0.49429E-04   790   0.297E-02    0.192E-01
RMM:   7    -0.377630464911E+03    0.95445E-05   -0.33036E-04   788   0.230E-02    0.204E-01
RMM:   8    -0.377630416507E+03    0.48404E-04   -0.20674E-04   790   0.186E-02    0.159E-01
RMM:   9    -0.377630299141E+03    0.11737E-03   -0.87167E-05   788   0.124E-02    0.525E-02
RMM:  10    -0.377630286236E+03    0.12905E-04   -0.20949E-05   785   0.597E-03    0.305E-02
RMM:  11    -0.377630282827E+03    0.34092E-05   -0.89021E-06   780   0.371E-03    0.263E-02
RMM:  12    -0.377630279365E+03    0.34612E-05   -0.66703E-06   707   0.321E-03    0.220E-02
RMM:  13    -0.377630276664E+03    0.27013E-05   -0.26419E-06   456   0.222E-03    0.103E-02
RMM:  14    -0.377630276349E+03    0.31501E-06   -0.14570E-06   411   0.170E-03
  78 F= -.41268053E+03 E0= -.41216899E+03  d E =-.102309E+01
 Finite differences progress:
  Degree of freedom:  39/102
  Displacement:        1/  2
  Total:              77/204
 bond charge predicted
       N       E                     dE             d eps       ncg     rms          rms(c)
DAV:   1    -0.377620751709E+03    0.95250E-02   -0.49881E+00   784   0.277E+00    0.357E-01
RMM:   2    -0.377628237003E+03   -0.74853E-02   -0.54212E-02   786   0.402E-01    0.751E-01
RMM:   3    -0.377626743387E+03    0.14936E-02   -0.42105E-03   793   0.819E-02    0.488E-01
RMM:   4    -0.377632836007E+03   -0.60926E-02   -0.21472E-03   789   0.527E-02    0.112E+00
RMM:   5    -0.377628266242E+03    0.45698E-02   -0.21570E-03   787   0.525E-02    0.750E-01
RMM:   6    -0.377625687256E+03    0.25790E-02   -0.11585E-03   790   0.445E-02    0.269E-01
RMM:   7    -0.377625574890E+03    0.11237E-03   -0.71909E-04   788   0.337E-02    0.263E-01
RMM:   8    -0.377625526616E+03    0.48274E-04   -0.41367E-04   789   0.259E-02    0.226E-01
RMM:   9    -0.377625333720E+03    0.19290E-03   -0.18330E-04   788   0.177E-02    0.130E-01
RMM:  10    -0.377625254950E+03    0.78770E-04   -0.60688E-05   788   0.103E-02    0.431E-02
RMM:  11    -0.377625247557E+03    0.73925E-05   -0.19960E-05   783   0.575E-03    0.334E-02
RMM:  12    -0.377625241548E+03    0.60095E-05   -0.14276E-05   781   0.457E-03    0.275E-02
RMM:  13    -0.377625236592E+03    0.49555E-05   -0.68879E-06   726   0.336E-03    0.148E-02
RMM:  14    -0.377625235894E+03    0.69827E-06   -0.19498E-06   433   0.192E-03
  79 F= -.41267952E+03 E0= -.41216856E+03  d E =-.102191E+01
 Finite differences progress:
  Degree of freedom:  39/102
  Displacement:        2/  2
  Total:              78/204
 bond charge predicted
       N       E                     dE             d eps       ncg     rms          rms(c)
DAV:   1    -0.377625932396E+03   -0.69580E-03   -0.24936E+00   784   0.201E+00    0.236E-01
RMM:   2    -0.377629229259E+03   -0.32969E-02   -0.27498E-02   786   0.292E-01    0.418E-01
RMM:   3    -0.377628759815E+03    0.46944E-03   -0.18607E-03   794   0.550E-02    0.238E-01
RMM:   4    -0.377629095753E+03   -0.33594E-03   -0.80664E-04   790   0.359E-02    0.386E-01
RMM:   5    -0.377629802469E+03   -0.70672E-03   -0.76900E-04   788   0.330E-02    0.522E-01
RMM:   6    -0.377628501186E+03    0.13013E-02   -0.27984E-04   789   0.207E-02    0.218E-01
RMM:   7    -0.377628477894E+03    0.23292E-04   -0.34470E-04   788   0.235E-02    0.195E-01
RMM:   8    -0.377628421539E+03    0.56356E-04   -0.20805E-04   790   0.182E-02    0.164E-01
RMM:   9    -0.377628307612E+03    0.11393E-03   -0.91109E-05   788   0.126E-02    0.732E-02
RMM:  10    -0.377628284999E+03    0.22612E-04   -0.22472E-05   785   0.632E-03    0.285E-02
RMM:  11    -0.377628280969E+03    0.40304E-05   -0.10582E-05   782   0.410E-03    0.247E-02
RMM:  12    -0.377628277892E+03    0.30771E-05   -0.78233E-06   759   0.338E-03    0.215E-02
RMM:  13    -0.377628275151E+03    0.27406E-05   -0.31879E-06   485   0.240E-03    0.110E-02
RMM:  14    -0.377628274789E+03    0.36208E-06   -0.13654E-06   409   0.169E-03
  80 F= -.41268062E+03 E0= -.41216940E+03  d E =-.102245E+01
 Finite differences progress:
  Degree of freedom:  40/102
  Displacement:        1/  2
  Total:              79/204
 bond charge predicted
       N       E                     dE             d eps       ncg     rms          rms(c)
DAV:   1    -0.377623164229E+03    0.51109E-02   -0.50019E+00   784   0.276E+00    0.313E-01
RMM:   2    -0.377628721053E+03   -0.55568E-02   -0.52435E-02   789   0.396E-01    0.404E-01
RMM:   3    -0.377629906594E+03   -0.11855E-02   -0.34550E-03   789   0.722E-02    0.577E-01
RMM:   4    -0.377633496122E+03   -0.35895E-02   -0.17592E-03   793   0.449E-02    0.976E-01
RMM:   5    -0.377628815671E+03    0.46805E-02   -0.16731E-03   788   0.495E-02    0.473E-01
RMM:   6    -0.377628076607E+03    0.73906E-03   -0.80922E-04   788   0.367E-02    0.264E-01
RMM:   7    -0.377627933035E+03    0.14357E-03   -0.62783E-04   787   0.315E-02    0.182E-01
RMM:   8    -0.377627824474E+03    0.10856E-03   -0.31715E-04   789   0.227E-02    0.140E-01
RMM:   9    -0.377627722444E+03    0.10203E-03   -0.78984E-05   786   0.114E-02    0.533E-02
RMM:  10    -0.377627712792E+03    0.96528E-05   -0.23393E-05   783   0.611E-03    0.488E-02
RMM:  11    -0.377627703995E+03    0.87971E-05   -0.14752E-05   783   0.477E-03    0.356E-02
RMM:  12    -0.377627696330E+03    0.76646E-05   -0.12302E-05   781   0.437E-03    0.223E-02
RMM:  13    -0.377627694093E+03    0.22372E-05   -0.34641E-06   506   0.248E-03    0.150E-02
RMM:  14    -0.377627693898E+03    0.19490E-06   -0.22041E-06   436   0.207E-03
  81 F= -.41267992E+03 E0= -.41216866E+03  d E =-.102251E+01
 Finite differences progress:
  Degree of freedom:  40/102
  Displacement:        2/  2
  Total:              80/204
 bond charge predicted
       N       E                     dE             d eps       ncg     rms          rms(c)
DAV:   1    -0.377624955568E+03    0.27385E-02   -0.24884E+00   784   0.195E+00    0.216E-01
RMM:   2    -0.377628038853E+03   -0.30833E-02   -0.26283E-02   787   0.282E-01    0.403E-01
RMM:   3    -0.377627561567E+03    0.47729E-03   -0.15742E-03   794   0.491E-02    0.181E-01
RMM:   4    -0.377628897725E+03   -0.13362E-02   -0.79797E-04   790   0.342E-02    0.559E-01
RMM:   5    -0.377629202187E+03   -0.30446E-03   -0.68264E-04   789   0.285E-02    0.604E-01
RMM:   6    -0.377627388857E+03    0.18133E-02   -0.49465E-04   788   0.283E-02    0.183E-01
RMM:   7    -0.377627410842E+03   -0.21986E-04   -0.31920E-04   790   0.224E-02    0.202E-01
RMM:   8    -0.377627355950E+03    0.54892E-04   -0.20797E-04   788   0.184E-02    0.172E-01
RMM:   9    -0.377627225757E+03    0.13019E-03   -0.92538E-05   788   0.131E-02    0.544E-02
RMM:  10    -0.377627217061E+03    0.86958E-05   -0.19864E-05   785   0.611E-03    0.279E-02
RMM:  11    -0.377627214508E+03    0.25532E-05   -0.90001E-06   779   0.376E-03    0.283E-02
RMM:  12    -0.377627210884E+03    0.36246E-05   -0.63466E-06   694   0.314E-03    0.223E-02
RMM:  13    -0.377627208137E+03    0.27468E-05   -0.29826E-06   472   0.232E-03    0.109E-02
RMM:  14    -0.377627207874E+03    0.26315E-06   -0.16514E-06   419   0.181E-03
  82 F= -.41267945E+03 E0= -.41216803E+03  d E =-.102283E+01
 Finite differences progress:
  Degree of freedom:  41/102
  Displacement:        1/  2
  Total:              81/204
 bond charge predicted
       N       E                     dE             d eps       ncg     rms          rms(c)
DAV:   1    -0.377624560918E+03    0.26472E-02   -0.49575E+00   784   0.275E+00    0.301E-01
RMM:   2    -0.377631050511E+03   -0.64896E-02   -0.53098E-02   789   0.394E-01    0.631E-01
RMM:   3    -0.377630145195E+03    0.90532E-03   -0.31034E-03   795   0.679E-02    0.345E-01
RMM:   4    -0.377637236797E+03   -0.70916E-02   -0.18696E-03   790   0.467E-02    0.118E+00
RMM:   5    -0.377630494221E+03    0.67426E-02   -0.16748E-03   789   0.488E-02    0.540E-01
RMM:   6    -0.377629495032E+03    0.99919E-03   -0.89752E-04   789   0.393E-02    0.262E-01
RMM:   7    -0.377629617229E+03   -0.12220E-03   -0.59715E-04   789   0.303E-02    0.325E-01
RMM:   8    -0.377629418754E+03    0.19848E-03   -0.43128E-04   789   0.267E-02    0.236E-01
RMM:   9    -0.377629172592E+03    0.24616E-03   -0.18658E-04   789   0.187E-02    0.695E-02
RMM:  10    -0.377629155104E+03    0.17489E-04   -0.40158E-05   787   0.834E-03    0.436E-02
RMM:  11    -0.377629151174E+03    0.39292E-05   -0.16825E-05   784   0.509E-03    0.478E-02
RMM:  12    -0.377629138604E+03    0.12570E-04   -0.14522E-05   783   0.475E-03    0.258E-02
RMM:  13    -0.377629134833E+03    0.37712E-05   -0.52830E-06   640   0.294E-03    0.133E-02
RMM:  14    -0.377629134430E+03    0.40291E-06   -0.29985E-06   476   0.232E-03
  83 F= -.41268146E+03 E0= -.41217043E+03  d E =-.102206E+01
 Finite differences progress:
  Degree of freedom:  41/102
  Displacement:        2/  2
  Total:              82/204
 bond charge predicted
       N       E                     dE             d eps       ncg     rms          rms(c)
DAV:   1    -0.377627787499E+03    0.13473E-02   -0.24874E+00   784   0.195E+00    0.223E-01
RMM:   2    -0.377630876211E+03   -0.30887E-02   -0.26229E-02   787   0.279E-01    0.395E-01
RMM:   3    -0.377630664553E+03    0.21166E-03   -0.16536E-03   797   0.501E-02    0.268E-01
RMM:   4    -0.377635241437E+03   -0.45769E-02   -0.12002E-03   789   0.373E-02    0.965E-01
RMM:   5    -0.377630559737E+03    0.46817E-02   -0.79144E-04   788   0.338E-02    0.324E-01
RMM:   6    -0.377630268514E+03    0.29122E-03   -0.47407E-04   790   0.287E-02    0.186E-01
RMM:   7    -0.377630242872E+03    0.25642E-04   -0.34142E-04   788   0.231E-02    0.199E-01
RMM:   8    -0.377630198409E+03    0.44464E-04   -0.20031E-04   789   0.183E-02    0.164E-01
RMM:   9    -0.377630079527E+03    0.11888E-03   -0.77320E-05   787   0.119E-02    0.615E-02
RMM:  10    -0.377630067200E+03    0.12327E-04   -0.22170E-05   786   0.643E-03    0.306E-02
RMM:  11    -0.377630064124E+03    0.30758E-05   -0.86227E-06   779   0.367E-03    0.273E-02
RMM:  12    -0.377630060596E+03    0.35285E-05   -0.65128E-06   707   0.316E-03    0.224E-02
RMM:  13    -0.377630057858E+03    0.27374E-05   -0.29722E-06   476   0.233E-03    0.107E-02
RMM:  14    -0.377630057478E+03    0.38034E-06   -0.14321E-06   409   0.171E-03
  84 F= -.41268026E+03 E0= -.41216906E+03  d E =-.102240E+01
 Finite differences progress:
  Degree of freedom:  42/102
  Displacement:        1/  2
  Total:              83/204
 bond charge predicted
       N       E                     dE             d eps       ncg     rms          rms(c)
DAV:   1    -0.377620944818E+03    0.91130E-02   -0.49973E+00   784   0.275E+00    0.357E-01
RMM:   2    -0.377628409698E+03   -0.74649E-02   -0.53982E-02   787   0.396E-01    0.742E-01
RMM:   3    -0.377627273121E+03    0.11366E-02   -0.41317E-03   791   0.800E-02    0.507E-01
RMM:   4    -0.377636404065E+03   -0.91309E-02   -0.27752E-03   789   0.572E-02    0.140E+00
RMM:   5    -0.377626688000E+03    0.97161E-02   -0.17671E-03   788   0.512E-02    0.509E-01
RMM:   6    -0.377625908218E+03    0.77978E-03   -0.11429E-03   790   0.434E-02    0.290E-01
RMM:   7    -0.377625704249E+03    0.20397E-03   -0.73632E-04   788   0.337E-02    0.251E-01
RMM:   8    -0.377625624686E+03    0.79562E-04   -0.41805E-04   789   0.259E-02    0.206E-01
RMM:   9    -0.377625474318E+03    0.15037E-03   -0.17163E-04   788   0.172E-02    0.139E-01
RMM:  10    -0.377625393663E+03    0.80655E-04   -0.52252E-05   790   0.999E-03    0.376E-02
RMM:  11    -0.377625392125E+03    0.15383E-05   -0.20277E-05   784   0.592E-03    0.340E-02
RMM:  12    -0.377625387204E+03    0.49208E-05   -0.13414E-05   780   0.447E-03    0.346E-02
RMM:  13    -0.377625381025E+03    0.61793E-05   -0.67982E-06   720   0.334E-03    0.159E-02
RMM:  14    -0.377625380169E+03    0.85631E-06   -0.22359E-06   444   0.208E-03
  85 F= -.41267972E+03 E0= -.41216842E+03  d E =-.102259E+01
 Finite differences progress:
  Degree of freedom:  42/102
  Displacement:        2/  2
  Total:              84/204
 bond charge predicted
       N       E                     dE             d eps       ncg     rms          rms(c)
DAV:   1    -0.377628393032E+03   -0.30120E-02   -0.24763E+00   784   0.201E+00    0.231E-01
RMM:   2    -0.377631558719E+03   -0.31657E-02   -0.28133E-02   787   0.293E-01    0.348E-01
RMM:   3    -0.377632100676E+03   -0.54196E-03   -0.22900E-03   807   0.621E-02    0.469E-01
RMM:   4    -0.377633603761E+03   -0.15031E-02   -0.90649E-04   790   0.341E-02    0.657E-01
RMM:   5    -0.377631607942E+03    0.19958E-02   -0.81242E-04   787   0.341E-02    0.367E-01
RMM:   6    -0.377631021440E+03    0.58650E-03   -0.45573E-04   790   0.276E-02    0.158E-01
RMM:   7    -0.377631044179E+03   -0.22739E-04   -0.33607E-04   788   0.225E-02    0.184E-01
RMM:   8    -0.377630989772E+03    0.54407E-04   -0.19482E-04   790   0.177E-02    0.167E-01
RMM:   9    -0.377630879469E+03    0.11030E-03   -0.90618E-05   787   0.127E-02    0.770E-02
RMM:  10    -0.377630861812E+03    0.17657E-04   -0.27098E-05   789   0.745E-03    0.297E-02
RMM:  11    -0.377630861156E+03    0.65597E-06   -0.94004E-06   781   0.396E-03
  86 F= -.41268311E+03 E0= -.41217196E+03  d E =-.102230E+01
 Finite differences progress:
  Degree of freedom:  43/102
  Displacement:        1/  2
  Total:              85/204
 bond charge predicted
       N       E                     dE             d eps       ncg     rms          rms(c)
DAV:   1    -0.377620612882E+03    0.10249E-01   -0.49244E+00   784   0.274E+00    0.276E-01
RMM:   2    -0.377628920737E+03   -0.83079E-02   -0.55953E-02   787   0.401E-01    0.749E-01
RMM:   3    -0.377629555512E+03   -0.63477E-03   -0.46685E-03   826   0.833E-02    0.815E-01
RMM:   4    -0.377626259363E+03    0.32961E-02   -0.13377E-03   790   0.459E-02    0.314E-01
RMM:   5    -0.377626374562E+03   -0.11520E-03   -0.88253E-04   788   0.375E-02    0.389E-01
RMM:   6    -0.377625928319E+03    0.44624E-03   -0.68880E-04   789   0.327E-02    0.277E-01
RMM:   7    -0.377625758810E+03    0.16951E-03   -0.43719E-04   788   0.264E-02    0.203E-01
RMM:   8    -0.377625741696E+03    0.17113E-04   -0.41524E-04   788   0.259E-02    0.186E-01
RMM:   9    -0.377625586548E+03    0.15515E-03   -0.15913E-04   790   0.163E-02    0.950E-02
RMM:  10    -0.377625546758E+03    0.39789E-04   -0.36629E-05   787   0.786E-03    0.457E-02
RMM:  11    -0.377625537099E+03    0.96597E-05   -0.14480E-05   784   0.482E-03    0.303E-02
RMM:  12    -0.377625529923E+03    0.71757E-05   -0.16355E-05   779   0.496E-03    0.231E-02
RMM:  13    -0.377625526276E+03    0.36469E-05   -0.53387E-06   642   0.291E-03    0.115E-02
RMM:  14    -0.377625525957E+03    0.31958E-06   -0.16815E-06   426   0.179E-03
  87 F= -.41267786E+03 E0= -.41216646E+03  d E =-.102280E+01
 Finite differences progress:
  Degree of freedom:  43/102
  Displacement:        2/  2
  Total:              86/204
 bond charge predicted
       N       E                     dE             d eps       ncg     rms          rms(c)
DAV:   1    -0.377625250510E+03    0.27577E-03   -0.24603E+00   784   0.193E+00    0.193E-01
RMM:   2    -0.377629243518E+03   -0.39930E-02   -0.27847E-02   786   0.282E-01    0.518E-01
RMM:   3    -0.377629594781E+03   -0.35126E-03   -0.22892E-03   824   0.590E-02    0.567E-01
RMM:   4    -0.377628133208E+03    0.14616E-02   -0.63722E-04   791   0.314E-02    0.259E-01
RMM:   5    -0.377628177916E+03   -0.44708E-04   -0.45215E-04   787   0.268E-02    0.310E-01
RMM:   6    -0.377627842736E+03    0.33518E-03   -0.35919E-04   789   0.237E-02    0.172E-01
RMM:   7    -0.377627769960E+03    0.72776E-04   -0.22893E-04   788   0.192E-02    0.131E-01
RMM:   8    -0.377627805168E+03   -0.35208E-04   -0.20509E-04   790   0.181E-02    0.153E-01
RMM:   9    -0.377627703762E+03    0.10141E-03   -0.92345E-05   788   0.125E-02    0.711E-02
RMM:  10    -0.377627682635E+03    0.21126E-04   -0.22651E-05   783   0.642E-03    0.300E-02
RMM:  11    -0.377627678597E+03    0.40382E-05   -0.74412E-06   755   0.345E-03    0.221E-02
srun: Job step aborted: Waiting up to 32 seconds for job step to finish.
slurmstepd: error: *** STEP 35194114.0 ON h06r4n15 CANCELLED AT 2025-07-24T12:57:17 ***
slurmstepd: error: *** JOB 35194114 ON h06r4n15 CANCELLED AT 2025-07-24T12:57:17 ***
