ITEM: TIMESTEP
1
ITEM: NUMBER OF ATOMS
3074
ITEM: BOX BOUNDS pp pp pp
0.0000000000000000e+00 3.8693948398131120e+01
0.0000000000000000e+00 4.4679925159782847e+01
0.0000000000000000e+00 6.0000000000000000e+01
ITEM: ATOMS id type x y z c_peratom[1] c_peratom[2] c_peratom[3] c_peratom[4] c_peratom[5] c_peratom[6]
1 2 0 0 0 -202934 -202932 21677.2 -1.95663e-06 0.260135 -9.80013e-05
2 2 3.2245 1.0913e-12 2.27982 29921.5 29923.6 -81869.7 -5.23193e-05 0.376551 -7.38738e-05
3 2 1.61225 1.12871e-12 4.558 40088.6 40090.7 -339.56 6.18778e-06 0.377342 -8.73552e-05
4 2 2.41837 1.39625 0 -202934 -202932 21677.2 -0.000361132 0.259961 -0.000218337
5 2 0.806124 1.39625 2.27982 29921.5 29923.6 -81869.7 -3.24458e-05 0.376691 -0.000180961
6 2 4.03062 1.39625 4.558 40088.6 40090.7 -339.561 5.43924e-05 0.377441 8.01189e-05
7 2 1.27341e-13 5.24364e-13 6.83699 43254.4 43256.7 15582.1 3.80558e-06 0.521803 9.0805e-05
8 2 3.2245 1.07658e-12 9.11598 43284.7 43286.8 15720.7 9.7902e-05 0.37721 6.22126e-05
9 2 1.61225 1.03326e-12 11.395 43284.2 43286.3 15715.8 -3.17651e-05 0.376982 -4.84958e-05
10 2 2.41837 1.39625 6.83699 43254.4 43256.7 15582.1 0.000189864 0.521993 0.000254784
11 2 0.806124 1.39625 9.11598 43284.7 43286.8 15720.7 5.57839e-05 0.377076 0.000211415
12 2 4.03062 1.39625 11.395 43284.2 43286.3 15715.8 -8.86231e-05 0.376747 -0.000337915
13 2 7.52606e-16 -3.70517e-14 13.674 43284.1 43286.3 15715.6 -9.87936e-06 0.521795 -0.000124912
14 2 3.2245 -1.71594e-12 15.953 43284.7 43286.8 15720.7 -2.18048e-05 0.376963 4.4756e-05
15 2 1.61225 -2.91853e-12 18.232 43254.3 43256.5 15579 3.72759e-05 0.377115 8.77528e-05
16 2 2.41837 1.39625 13.674 43284.1 43286.3 15715.6 -0.000173895 0.521528 -0.000274693
17 2 0.806124 1.39625 15.953 43284.7 43286.8 15720.7 -3.91863e-05 0.377032 -9.79408e-05
18 2 4.03062 1.39625 18.232 43254.3 43256.5 15579 0.000366346 0.377361 0.00041393
19 2 8.93155e-14 -2.75543e-12 20.5109 40074.2 40076.5 -405.961 4.50838e-06 0.522525 6.47756e-05
20 2 3.2245 8.60549e-13 22.7891 32520.7 32522.8 -70099 0.000145352 0.3602 3.63247e-05
21 2 1.61225 5.6048e-13 25.0697 -200350 -200348 33378.5 0.000318458 0.0984337 -4.65851e-05
22 2 2.41837 1.39625 20.5109 40074.2 40076.5 -405.961 0.000390547 0.522774 0.000261524
23 2 0.806124 1.39625 22.7891 32520.7 32522.9 -70099 0.000117778 0.360144 7.83562e-05
24 2 4.03062 1.39625 25.0697 -200350 -200348 33378.5 -0.000198304 0.0982491 -0.0003504
25 2 0 2.7925 0 -202934 -202932 21677.2 -5.47134e-06 0.26014 -0.000264629
26 2 3.2245 2.7925 2.27982 29921.5 29923.6 -81869.7 -6.89206e-05 0.376639 -0.000111622
27 2 1.61225 2.7925 4.558 40088.6 40090.7 -339.561 4.43603e-05 0.3775 -3.94887e-05
28 2 2.41837 4.18874 0 -202934 -202932 21677.2 -0.00036298 0.259937 -0.000306608
29 2 0.806124 4.18874 2.27982 29921.5 29923.6 -81869.7 -1.85782e-05 0.376733 -0.000156193
30 2 4.03062 4.18874 4.558 40088.6 40090.7 -339.562 0.00011856 0.377584 0.000178557
31 2 8.21093e-14 2.7925 6.83699 43254.4 43256.7 15582.1 8.60983e-06 0.521787 0.000350251
32 2 3.2245 2.7925 9.11598 43284.7 43286.8 15720.7 -3.67682e-05 0.377006 -7.85571e-06
33 2 1.61225 2.7925 11.395 43284.2 43286.3 15715.8 -0.000145807 0.376781 -0.000368976
34 2 2.41837 4.18874 6.83699 43254.4 43256.7 15582.1 3.82167e-05 0.521941 0.000361726
35 2 0.806124 4.18874 9.11598 43284.7 43286.8 15720.7 -7.46574e-05 0.376958 4.24395e-05
36 2 4.03062 4.18874 11.395 43284.2 43286.3 15715.8 0.00010483 0.377032 -0.000130341
37 2 1.33155e-13 2.7925 13.674 43284.1 43286.3 15715.6 -1.70642e-05 0.521801 -0.000475169
38 2 3.2245 2.7925 15.953 43284.7 43286.8 15720.7 0.000411847 0.377238 0.000242556
39 2 1.61225 2.7925 18.232 43254.3 43256.5 15579 0.000424122 0.377338 0.000420396
40 2 2.41837 4.18874 13.674 43284.1 43286.3 15715.6 0.000374978 0.521894 -0.000206187
41 2 0.806124 4.18874 15.953 43284.7 43286.8 15720.7 0.000270128 0.377188 0.000153783
42 2 4.03062 4.18874 18.232 43254.3 43256.5 15579 -0.000474152 0.376701 -0.000204527
43 2 -8.90333e-14 2.7925 20.5109 40074.2 40076.5 -405.959 1.7724e-06 0.522522 0.000355415
44 2 3.2245 2.7925 22.7891 32520.7 32522.8 -70099 -0.000154183 0.360052 -0.00014249
45 2 1.61225 2.7925 25.0697 -200350 -200348 33378.5 5.72467e-05 0.0982087 -0.000292304
46 2 2.41837 4.18874 20.5109 40074.2 40076.5 -405.962 -0.000218686 0.522402 9.49431e-05
47 2 0.806124 4.18874 22.7891 32520.7 32522.8 -70099 -7.19671e-05 0.360051 -4.02566e-06
48 2 4.03062 4.18874 25.0697 -200350 -200348 33378.5 -0.00114712 0.0987129 0.000148583
49 2 0 5.58499 0 -202934 -202932 21677.2 -2.69204e-06 0.260139 -0.000366786
50 2 3.2245 5.58499 2.27982 29921.5 29923.6 -81869.7 3.12719e-05 0.376769 -5.60084e-06
51 2 1.61225 5.58499 4.558 40088.6 40090.7 -339.561 9.46015e-05 0.377593 0.000252874
52 2 2.41837 6.98124 0 -202934 -202932 21677.2 -0.000186914 0.260104 -0.000262898
53 2 0.806124 6.98124 2.27982 29921.5 29923.6 -81869.7 1.63036e-05 0.376779 -4.34626e-05
54 2 4.03062 6.98124 4.558 40088.6 40090.7 -339.563 0.00012888 0.377394 0.000122546
55 2 5.76496e-14 5.58499 6.83699 43254.4 43256.7 15582.1 9.30119e-06 0.521788 0.000532224
56 2 3.2245 5.58499 9.11598 43284.7 43286.8 15720.7 -0.000328178 0.37691 -0.000130955
57 2 1.61225 5.58499 11.395 43284.2 43286.3 15715.8 -3.98006e-05 0.377041 -0.000628407
58 2 2.41837 6.98124 6.83699 43254.4 43256.7 15582.1 -0.00024142 0.521501 0.000207854
59 2 0.806124 6.98124 9.11598 43284.7 43286.8 15720.7 -0.000159957 0.376916 -0.000273504
60 2 4.03062 6.98124 11.395 43284.2 43286.3 15715.8 0.000432847 0.377823 0.000258271
61 2 4.95967e-14 5.58499 13.674 43284.1 43286.3 15715.6 -1.75724e-05 0.521769 -0.000466289
62 2 3.2245 5.58499 15.953 43284.7 43286.8 15720.7 0.000422238 0.376938 -5.28059e-05
63 2 1.61225 5.58499 18.232 43254.3 43256.5 15579 9.6708e-05 0.376881 0.00052668
64 2 2.41837 6.98124 13.674 43284.1 43286.3 15715.6 0.000851586 0.522494 -4.67346e-05
65 2 0.806124 6.98124 15.953 43284.7 43286.8 15720.7 0.000238041 0.377068 0.000509203
66 2 4.03062 6.98124 18.232 43254.3 43256.5 15579 -0.00149182 0.37598 -0.000695551
67 2 -5.62573e-14 5.58499 20.5109 40074.2 40076.5 -405.962 2.48793e-05 0.522543 0.000439257
68 2 3.2245 5.58499 22.7891 32520.7 32522.9 -70099 -0.000577302 0.36006 -6.80922e-05
69 2 1.61225 5.58499 25.0697 -200350 -200348 33378.5 -0.00154835 0.0984831 -0.000335936
70 2 2.41837 6.98124 20.5109 40074.2 40076.5 -405.96 -0.00169194 0.521746 -0.00022373
71 2 0.806124 6.98124 22.7891 32520.7 32522.8 -70099 -0.000587577 0.360039 -0.000272406
72 2 4.03062 6.98124 25.0697 -200350 -200348 33378.5 0.00247653 0.0992485 0.00073753
73 2 0 8.37749 0 -202934 -202932 21677.2 9.52655e-06 0.260128 -0.0003676
74 2 3.2245 8.37749 2.27982 29921.5 29923.6 -81869.7 9.22093e-05 0.376898 5.36933e-05
75 2 1.61225 8.37749 4.558 40088.6 40090.7 -339.562 7.54342e-05 0.377459 0.000275716
76 2 2.41837 9.77373 0 -202934 -202932 21677.2 -0.000150378 0.260452 -0.000146453
77 2 0.806124 9.77373 2.27982 29921.5 29923.6 -81869.7 2.20745e-05 0.376822 -3.2518e-05
78 2 4.03062 9.77373 4.558 40088.6 40090.7 -339.563 4.46109e-05 0.377048 -0.000146061
79 2 1.31066e-13 8.37749 6.83699 43254.4 43256.7 15582.1 9.28449e-06 0.52181 0.000274795
80 2 3.2245 8.37749 9.11598 43284.7 43286.8 15720.7 -6.01264e-05 0.377296 0.000102381
81 2 1.61225 8.37749 11.395 43284.2 43286.3 15715.8 0.000403881 0.377802 -0.000217485
82 2 2.41837 9.77373 6.83699 43254.4 43256.7 15582.1 -0.000220605 0.521131 -6.21811e-05
83 2 0.806124 9.77373 9.11598 43284.7 43286.8 15720.7 2.50045e-06 0.377104 -0.000224999
84 2 4.03062 9.77373 11.395 43284.2 43286.3 15715.7 0.00023111 0.377791 6.24024e-05
85 2 -3.38541e-13 8.37749 13.674 43284.1 43286.3 15715.6 -1.60875e-05 0.52175 0.000223865
86 2 3.2245 8.37749 15.953 43284.7 43286.8 15720.7 -0.00143375 0.375112 -0.00115557
87 2 1.61225 8.37749 18.232 43254.3 43256.5 15579 -0.00187991 0.375284 -0.000213573
88 2 2.41837 9.77373 13.674 43284.1 43286.3 15715.6 -3.70414e-05 0.521535 -0.00030857
89 2 0.806124 9.77373 15.953 43284.7 43286.8 15720.7 -0.000672005 0.376 0.000253219
90 2 4.03062 9.77373 18.232 43254.4 43256.5 15579 0.00157804 0.378058 0.00102505
91 2 9.97843e-13 8.37749 20.5109 40074.2 40076.5 -405.969 9.77545e-05 0.522597 -0.000406102
92 2 3.2245 8.37749 22.7891 32520.7 32522.9 -70099 0.000736498 0.360535 0.000671057
93 2 1.61225 8.37749 25.0697 -200350 -200348 33378.5 -0.000562346 0.0996662 0.000290565
94 2 2.41837 9.77373 20.5109 40074.2 40076.5 -405.95 0.000220511 0.522965 0.000389077
95 2 0.806124 9.77373 22.7891 32520.7 32522.9 -70099 -6.44215e-05 0.360452 -8.46663e-05
96 2 4.03062 9.77373 25.0697 -200350 -200348 33378.5 0.00644551 0.0965269 -0.00107219
97 2 0 11.17 0 -202934 -202932 21677.2 1.64683e-05 0.260117 -0.000225513
98 2 3.2245 11.17 2.27982 29921.5 29923.6 -81869.7 1.84532e-05 0.37699 -3.41512e-05
99 2 1.61225 11.17 4.558 40088.6 40090.7 -339.564 -3.4919e-05 0.377208 -0.000130058
100 2 2.41837 12.5662 0 -202934 -202932 21677.2 -0.000186967 0.260765 -1.13098e-05
101 2 0.806124 12.5662 2.27982 29921.5 29923.6 -81869.7 -8.21883e-06 0.376847 -9.41118e-05
102 2 4.03062 12.5662 4.558 40088.6 40090.7 -339.562 -7.35566e-05 0.376994 -0.000351052
103 2 2.3995e-13 11.17 6.83699 43254.4 43256.7 15582.1 1.88351e-06 0.521812 -0.000252848
104 2 3.2245 11.17 9.11598 43284.7 43286.8 15720.7 0.000474079 0.377984 0.000421192
105 2 1.61225 11.17 11.395 43284.2 43286.3 15715.8 0.000586863 0.378192 0.000403664
106 2 2.41837 12.5662 6.83699 43254.4 43256.7 15582.1 9.58287e-06 0.52134 -0.000181545
107 2 0.806124 12.5662 9.11598 43284.7 43286.8 15720.7 0.000187536 0.377409 6.96489e-05
108 2 4.03062 12.5662 11.395 43284.2 43286.3 15715.7 -0.00075579 0.375385 -0.000899296
109 2 -3.69135e-13 11.17 13.674 43284.1 43286.3 15715.6 1.82261e-05 0.521846 0.000856332
110 2 3.2245 11.17 15.953 43284.7 43286.8 15720.7 -0.00150262 0.37518 -0.000655487
111 2 1.61225 11.17 18.232 43254.3 43256.5 15579 -0.00205819 0.37541 -0.00069755
112 2 2.41837 12.5662 13.674 43284.1 43286.3 15715.6 -0.00171723 0.518414 -0.00091196
113 2 0.806124 12.5662 15.953 43284.7 43286.8 15720.7 -0.00167532 0.374506 -0.000950517
114 2 4.03062 12.5662 18.232 43254.4 43256.5 15579 0.004014 0.381761 0.00271645
115 2 1.20724e-12 11.17 20.5109 40074.2 40076.5 -405.963 1.70172e-05 0.522545 -0.000886729
116 2 3.2245 11.17 22.7891 32520.7 32522.9 -70099 0.00243712 0.361439 0.00108236
117 2 1.61225 11.17 25.0697 -200350 -200348 33378.5 0.00403211 0.0997396 0.00062837
118 2 2.41837 12.5662 20.5109 40074.2 40076.5 -405.948 0.00301562 0.525587 0.00140328
119 2 0.806124 12.5662 22.7891 32520.8 32522.9 -70099 0.000755094 0.360458 0.000372403
120 2 4.03062 12.5662 25.0697 -200350 -200348 33378.5 -0.00250903 0.089472 -0.00488854
121 2 0 13.9625 0 -202934 -202932 21677.2 5.1232e-06 0.260112 -1.63934e-05
122 2 3.2245 13.9625 2.27982 29921.5 29923.6 -81869.7 -7.43734e-05 0.376999 -0.000121498
123 2 1.61225 13.9625 4.558 40088.6 40090.7 -339.565 -0.000153796 0.377041 -0.000438721
124 2 2.41837 15.3587 0 -202934 -202932 21677.2 -8.4721e-05 0.260886 8.36977e-05
125 2 0.806124 15.3587 2.27982 29921.5 29923.6 -81869.7 -2.89355e-05 0.376838 -7.30184e-05
126 2 4.03062 15.3587 4.558 40088.6 40090.7 -339.56 -0.000133384 0.377225 -0.000293877
127 2 2.05217e-13 13.9625 6.83699 43254.4 43256.7 15582.1 -1.73345e-05 0.521775 -0.000498589
128 2 3.2245 13.9625 9.11598 43284.7 43286.8 15720.7 0.00063159 0.378467 0.000502651
129 2 1.61225 13.9625 11.395 43284.2 43286.3 15715.8 0.000240532 0.377531 0.000647201
130 2 2.41837 15.3587 6.83699 43254.4 43256.7 15582.1 0.000111379 0.521995 -9.05592e-05
131 2 0.806124 15.3587 9.11598 43284.7 43286.8 15720.7 0.000199748 0.377653 0.000256395
132 2 4.03062 15.3587 11.395 43284.2 43286.3 15715.7 -0.00143381 0.37257 -0.00143491
133 2 1.3618e-12 13.9625 13.674 43284 43286.3 15715.6 0.000103428 0.522063 0.000538436
134 2 3.2245 13.9625 15.953 43284.7 43286.8 15720.7 0.00115291 0.377771 0.000930709
135 2 1.61225 13.9625 18.232 43254.3 43256.5 15579 0.000973814 0.37833 0.000114844
136 2 2.41837 15.3587 13.674 43284.1 43286.3 15715.6 -0.00200195 0.516514 -0.0010166
137 2 0.806124 15.3587 15.953 43284.6 43286.8 15720.7 -0.0013676 0.374646 -0.00156207
138 2 4.03062 15.3587 18.232 43254.3 43256.4 15578.9 0.00796354 0.390281 0.00498297
139 2 -1.12138e-12 13.9625 20.5109 40074.2 40076.5 -405.942 -0.000117147 0.522349 -0.000137219
140 2 3.2245 13.9625 22.7891 32520.7 32522.8 -70099.1 0.00637159 0.357867 -0.00133402
141 2 1.61225 13.9625 25.0697 -200350 -200348 33378.5 0.0060434 0.0966116 6.9458e-05
142 2 2.41837 15.3587 20.5109 40074.2 40076.5 -405.966 0.00530227 0.530319 0.00201956
143 2 0.806124 15.3587 22.7891 32520.8 32522.9 -70099 -0.000310495 0.360019 0.000312331
144 2 4.03062 15.3587 25.0697 -200350 -200348 33378.5 -0.0230553 0.0898349 -0.00391992
145 2 0 16.755 0 -202934 -202932 21677.2 -9.77058e-06 0.260106 9.93565e-05
146 2 3.2245 16.755 2.27982 29921.5 29923.6 -81869.7 -7.13566e-05 0.376927 -9.27844e-05
147 2 1.61225 16.755 4.558 40088.6 40090.7 -339.565 -0.000172538 0.376987 -0.000313264
148 2 2.41837 18.1512 0 -202934 -202932 21677.2 3.76275e-05 0.260878 8.51027e-05
149 2 0.806124 18.1512 2.27982 29921.5 29923.6 -81869.7 -2.02385e-05 0.376808 -6.17232e-06
150 2 4.03062 18.1512 4.558 40088.6 40090.7 -339.559 -9.79985e-05 0.377435 -0.000118806
151 2 1.87211e-14 16.755 6.83699 43254.4 43256.7 15582.1 -2.88574e-05 0.521721 -0.000308981
152 2 3.2245 16.755 9.11598 43284.7 43286.8 15720.7 0.000272421 0.37826 0.000310868
153 2 1.61225 16.755 11.395 43284.2 43286.3 15715.7 -0.000228118 0.375944 0.000372501
154 2 2.41837 18.1512 6.83699 43254.4 43256.7 15582.1 5.22616e-05 0.522572 1.99601e-05
155 2 0.806124 18.1512 9.11598 43284.7 43286.8 15720.7 9.0662e-05 0.377742 0.000201322
156 2 4.03062 18.1512 11.395 43284.2 43286.3 15715.7 -0.000967974 0.371854 -0.000864652
157 2 4.74065e-12 16.755 13.674 43284 43286.3 15715.6 0.000137464 0.52228 -0.000361678
158 2 3.2245 16.755 15.953 43284.7 43286.8 15720.7 0.00198597 0.379073 0.00116424
159 2 1.61225 16.755 18.232 43254.4 43256.5 15579 0.00223372 0.380575 0.000651189
160 2 2.41837 18.1512 13.674 43284.1 43286.4 15715.6 -0.000979108 0.517078 -0.000497211
161 2 0.806124 18.1512 15.953 43284.7 43286.8 15720.7 -0.000474167 0.375904 -0.000916839
162 2 4.03062 18.1512 18.232 43254.3 43256.4 15578.9 0.00745779 0.388325 0.00324036
163 2 -5.71473e-13 16.755 20.5109 40074.2 40076.5 -405.925 0.000127953 0.522268 3.37993e-06
164 2 3.2245 16.755 22.7891 32520.7 32522.8 -70099.1 0.00111586 0.344778 -0.0046965
165 2 1.61225 16.755 25.0697 -200350 -200348 33378.5 0.00414471 0.0909879 -0.000556494
166 2 2.41837 18.1512 20.5109 40074.2 40076.4 -405.992 0.00546276 0.532613 0.00117051
167 2 0.806124 18.1512 22.7891 32520.8 32522.9 -70099 -0.000551664 0.359787 0.000192546
168 2 4.03062 18.1512 25.0697 -200350 -200348 33378.5 -0.0179759 0.0969406 -0.000598848
169 2 0 19.5475 0 -202934 -202932 21677.2 -7.34347e-06 0.260098 5.79086e-05
170 2 3.2245 19.5475 2.27982 29921.5 29923.6 -81869.7 -2.21918e-05 0.376846 -2.60819e-05
171 2 1.61225 19.5475 4.558 40088.6 40090.7 -339.565 -7.30729e-05 0.376971 -7.91797e-05
172 2 2.41837 20.9437 0 -202934 -202932 21677.2 -8.34359e-09 0.260861 -1.8106e-08
173 2 0.806124 20.9437 2.27982 29921.5 29923.6 -81869.7 -6.68913e-09 0.37679 6.73859e-09
174 2 4.03062 20.9437 4.558 40088.6 40090.7 -339.559 6.60582e-09 0.377499 -3.20757e-09
175 2 -1.38348e-13 19.5475 6.83699 43254.4 43256.7 15582.1 -1.42223e-05 0.521689 -7.22777e-05
176 2 3.2245 19.5475 9.11598 43284.7 43286.8 15720.7 6.82532e-06 0.377747 8.24267e-05
177 2 1.61225 19.5475 11.395 43284.2 43286.3 15715.7 -0.000191547 0.374695 6.87456e-05
178 2 2.41837 20.9437 6.83699 43254.4 43256.7 15582.1 -5.44019e-09 0.522769 8.04678e-09
179 2 0.806124 20.9437 9.11598 43284.7 43286.8 15720.7 -1.50019e-09 0.377745 -6.10227e-09
180 2 4.03062 20.9437 11.395 43284.2 43286.3 15715.8 6.41335e-09 0.372014 -1.04004e-08
181 2 7.1386e-12 19.5475 13.674 43284 43286.3 15715.6 5.80801e-05 0.522368 -0.000357845
182 2 3.2245 19.5475 15.953 43284.7 43286.8 15720.7 0.000902337 0.380425 0.000501918
183 2 1.61225 19.5475 18.232 43254.4 43256.5 15579 0.00100099 0.381854 0.000331632
184 2 2.41837 20.9437 13.674 43284.1 43286.4 15715.6 -1.37376e-08 0.517681 3.96469e-09
185 2 0.806124 20.9437 15.953 43284.7 43286.8 15720.7 -2.0779e-10 0.37648 -3.66918e-10
186 2 4.03062 20.9437 18.232 43254.3 43256.4 15578.9 -3.41124e-09 0.381762 -1.59021e-09
187 2 1.43183e-12 19.5475 20.5109 40074.2 40076.5 -405.919 0.000163841 0.52232 -4.25338e-05
188 2 3.2245 19.5475 22.7891 32520.6 32522.8 -70099.1 -0.00214025 0.335511 -0.00250528
189 2 1.61225 19.5475 25.0697 -200350 -200348 33378.5 0.00114026 0.0866987 -0.000353828
190 2 2.41837 20.9437 20.5109 40074.2 40076.4 -406.003 9.73416e-10 0.531799 3.73139e-10
191 2 0.806124 20.9437 22.7891 32520.8 32522.9 -70099 1.45831e-08 0.359625 1.1076e-08
192 2 4.03062 20.9437 25.0697 -200350 -200348 33378.5 -6.17076e-09 0.0989356 -8.06001e-10
193 2 0 22.34 0 -202934 -202932 21677.2 7.34766e-06 0.260098 -5.78946e-05
194 2 3.2245 22.34 2.27982 29921.5 29923.6 -81869.7 2.21839e-05 0.376846 2.60675e-05
195 2 1.61225 22.34 4.558 40088.6 40090.7 -339.565 7.30753e-05 0.376971 7.91809e-05
196 2 2.41837 23.7362 0 -202934 -202932 21677.2 -3.76342e-05 0.260878 -8.51152e-05
197 2 0.806124 23.7362 2.27982 29921.5 29923.6 -81869.7 2.02322e-05 0.376808 6.1692e-06
198 2 4.03062 23.7362 4.558 40088.6 40090.7 -339.559 9.80075e-05 0.377435 0.000118805
199 2 -1.38348e-13 22.34 6.83699 43254.4 43256.7 15582.1 1.4229e-05 0.521689 7.22784e-05
200 2 3.2245 22.34 9.11598 43284.7 43286.8 15720.7 -6.82356e-06 0.377747 -8.24264e-05
201 2 1.61225 22.34 11.395 43284.2 43286.3 15715.7 0.000191547 0.374695 -6.8756e-05
202 2 2.41837 23.7362 6.83699 43254.4 43256.7 15582.1 -5.22634e-05 0.522572 -1.99522e-05
203 2 0.806124 23.7362 9.11598 43284.7 43286.8 15720.7 -9.06625e-05 0.377742 -0.000201328
204 2 4.03062 23.7362 11.395 43284.2 43286.3 15715.7 0.000967985 0.371854 0.000864644
205 2 7.1386e-12 22.34 13.674 43284 43286.3 15715.6 -5.80826e-05 0.522368 0.000357843
206 2 3.2245 22.34 15.953 43284.7 43286.8 15720.7 -0.000902344 0.380425 -0.000501921
207 2 1.61225 22.34 18.232 43254.4 43256.5 15579 -0.001001 0.381854 -0.000331633
208 2 2.41837 23.7362 13.674 43284.1 43286.4 15715.6 0.00097912 0.517078 0.000497229
209 2 0.806124 23.7362 15.953 43284.7 43286.8 15720.7 0.000474168 0.375904 0.000916833
210 2 4.03062 23.7362 18.232 43254.3 43256.4 15578.9 -0.00745781 0.388325 -0.00324038
211 2 1.43178e-12 22.34 20.5109 40074.2 40076.5 -405.919 -0.000163844 0.52232 4.25308e-05
212 2 3.2245 22.34 22.7891 32520.6 32522.8 -70099.1 0.00214025 0.335511 0.00250528
213 2 1.61225 22.34 25.0697 -200350 -200348 33378.5 -0.00114026 0.0866987 0.000353831
214 2 2.41837 23.7362 20.5109 40074.2 40076.4 -405.992 -0.00546276 0.532613 -0.00117051
215 2 0.806124 23.7362 22.7891 32520.8 32522.9 -70099 0.00055167 0.359787 -0.000192557
216 2 4.03062 23.7362 25.0697 -200350 -200348 33378.5 0.0179759 0.0969406 0.000598853
217 2 0 25.1325 0 -202934 -202932 21677.2 9.76199e-06 0.260106 -9.93553e-05
218 2 3.2245 25.1325 2.27982 29921.5 29923.6 -81869.7 7.13611e-05 0.376927 9.27877e-05
219 2 1.61225 25.1325 4.558 40088.6 40090.7 -339.565 0.000172536 0.376987 0.000313268
220 2 2.41837 26.5287 0 -202934 -202932 21677.2 8.4723e-05 0.260886 -8.36985e-05
221 2 0.806124 26.5287 2.27982 29921.5 29923.6 -81869.7 2.89347e-05 0.376838 7.30113e-05
222 2 4.03062 26.5287 4.558 40088.6 40090.7 -339.56 0.000133396 0.377225 0.00029388
223 2 1.86458e-14 25.1325 6.83699 43254.4 43256.7 15582.1 2.88608e-05 0.521721 0.000308974
224 2 3.2245 25.1325 9.11598 43284.7 43286.8 15720.7 -0.00027242 0.37826 -0.000310864
225 2 1.61225 25.1325 11.395 43284.2 43286.3 15715.7 0.000228124 0.375944 -0.000372502
226 2 2.41837 26.5287 6.83699 43254.4 43256.7 15582.1 -0.000111381 0.521995 9.05609e-05
227 2 0.806124 26.5287 9.11598 43284.7 43286.8 15720.7 -0.000199756 0.377653 -0.000256397
228 2 4.03062 26.5287 11.395 43284.2 43286.3 15715.7 0.00143382 0.37257 0.00143491
229 2 4.74061e-12 25.1325 13.674 43284 43286.3 15715.6 -0.000137467 0.522279 0.000361678
230 2 3.2245 25.1325 15.953 43284.7 43286.8 15720.7 -0.00198597 0.379073 -0.00116424
231 2 1.61225 25.1325 18.232 43254.4 43256.5 15579 -0.00223373 0.380575 -0.000651195
232 2 2.41837 26.5287 13.674 43284.1 43286.3 15715.6 0.00200195 0.516514 0.00101661
233 2 0.806124 26.5287 15.953 43284.6 43286.8 15720.7 0.00136762 0.374646 0.00156207
234 2 4.03062 26.5287 18.232 43254.3 43256.4 15578.9 -0.00796355 0.390281 -0.00498298
235 2 -5.71586e-13 25.1325 20.5109 40074.2 40076.5 -405.925 -0.00012796 0.522268 -3.39781e-06
236 2 3.2245 25.1325 22.7891 32520.7 32522.8 -70099.1 -0.00111586 0.344778 0.00469651
237 2 1.61225 25.1325 25.0697 -200350 -200348 33378.5 -0.00414471 0.0909879 0.000556484
238 2 2.41837 26.5287 20.5109 40074.2 40076.5 -405.966 -0.00530227 0.530319 -0.00201956
239 2 0.806124 26.5287 22.7891 32520.8 32522.9 -70099 0.0003105 0.360019 -0.000312334
240 2 4.03062 26.5287 25.0697 -200350 -200348 33378.5 0.0230553 0.0898349 0.00391992
241 2 0 27.925 0 -202934 -202932 21677.2 -5.12235e-06 0.260112 1.63984e-05
242 2 3.2245 27.925 2.27982 29921.5 29923.6 -81869.7 7.43826e-05 0.376999 0.000121494
243 2 1.61225 27.925 4.558 40088.6 40090.7 -339.565 0.000153788 0.377041 0.000438721
244 2 2.41837 29.3212 0 -202934 -202932 21677.2 0.000186966 0.260765 1.13043e-05
245 2 0.806124 29.3212 2.27982 29921.5 29923.6 -81869.7 8.21873e-06 0.376847 9.4109e-05
246 2 4.03062 29.3212 4.558 40088.6 40090.7 -339.562 7.35526e-05 0.376994 0.000351049
247 2 2.05142e-13 27.925 6.83699 43254.4 43256.7 15582.1 1.73336e-05 0.521775 0.00049858
248 2 3.2245 27.925 9.11598 43284.7 43286.8 15720.7 -0.000631588 0.378467 -0.000502648
249 2 1.61225 27.925 11.395 43284.2 43286.3 15715.8 -0.000240528 0.377531 -0.000647208
250 2 2.41837 29.3212 6.83699 43254.4 43256.7 15582.1 -9.58571e-06 0.52134 0.000181547
251 2 0.806124 29.3212 9.11598 43284.7 43286.8 15720.7 -0.000187539 0.377409 -6.96529e-05
252 2 4.03062 29.3212 11.395 43284.2 43286.3 15715.7 0.00075579 0.375385 0.000899304
253 2 1.36171e-12 27.925 13.674 43284 43286.3 15715.6 -0.000103433 0.522063 -0.000538434
254 2 3.2245 27.925 15.953 43284.7 43286.8 15720.7 -0.00115291 0.377771 -0.000930729
255 2 1.61225 27.925 18.232 43254.3 43256.5 15579 -0.00097382 0.37833 -0.000114841
256 2 2.41837 29.3212 13.674 43284.1 43286.3 15715.6 0.00171723 0.518414 0.000911958
257 2 0.806124 29.3212 15.953 43284.7 43286.8 15720.7 0.00167532 0.374506 0.000950513
258 2 4.03062 29.3212 18.232 43254.4 43256.5 15579 -0.00401401 0.381761 -0.00271645
259 2 -1.12144e-12 27.925 20.5109 40074.2 40076.5 -405.942 0.00011716 0.522349 0.000137231
260 2 3.2245 27.925 22.7891 32520.7 32522.8 -70099.1 -0.00637159 0.357867 0.00133402
261 2 1.61225 27.925 25.0697 -200350 -200348 33378.5 -0.00604339 0.0966116 -6.94512e-05
262 2 2.41837 29.3212 20.5109 40074.2 40076.5 -405.948 -0.00301561 0.525587 -0.00140326
263 2 0.806124 29.3212 22.7891 32520.8 32522.9 -70099 -0.000755091 0.360458 -0.000372403
264 2 4.03062 29.3212 25.0697 -200350 -200348 33378.5 0.00250902 0.089472 0.00488855
265 2 0 30.7174 0 -202934 -202932 21677.2 -1.64647e-05 0.260117 0.000225525
266 2 3.2245 30.7174 2.27982 29921.5 29923.6 -81869.7 -1.84526e-05 0.37699 3.41529e-05
267 2 1.61225 30.7174 4.558 40088.6 40090.7 -339.564 3.49061e-05 0.377208 0.000130046
268 2 2.41837 32.1137 0 -202934 -202932 21677.2 0.000150375 0.260452 0.000146447
269 2 0.806124 32.1137 2.27982 29921.5 29923.6 -81869.7 -2.20842e-05 0.376822 3.25249e-05
270 2 4.03062 32.1137 4.558 40088.6 40090.7 -339.563 -4.46151e-05 0.377048 0.000146069
271 2 2.39931e-13 30.7174 6.83699 43254.4 43256.7 15582.1 -1.90248e-06 0.521812 0.000252842
272 2 3.2245 30.7174 9.11598 43284.7 43286.8 15720.7 -0.000474071 0.377984 -0.000421177
273 2 1.61225 30.7174 11.395 43284.2 43286.3 15715.8 -0.000586872 0.378192 -0.000403666
274 2 2.41837 32.1137 6.83699 43254.4 43256.7 15582.1 0.000220612 0.521131 6.21704e-05
275 2 0.806124 32.1137 9.11598 43284.7 43286.8 15720.7 -2.48417e-06 0.377104 0.000225017
276 2 4.03062 32.1137 11.395 43284.2 43286.3 15715.7 -0.000231129 0.377791 -6.24147e-05
277 2 -3.69266e-13 30.7174 13.674 43284.1 43286.3 15715.6 -1.82277e-05 0.521846 -0.000856338
278 2 3.2245 30.7174 15.953 43284.7 43286.8 15720.7 0.00150261 0.37518 0.000655482
279 2 1.61225 30.7174 18.232 43254.3 43256.5 15579 0.00205818 0.37541 0.000697549
280 2 2.41837 32.1137 13.674 43284.1 43286.3 15715.6 3.70334e-05 0.521535 0.000308559
281 2 0.806124 32.1137 15.953 43284.7 43286.8 15720.7 0.000671993 0.376 -0.000253232
282 2 4.03062 32.1137 18.232 43254.4 43256.5 15579 -0.00157804 0.378058 -0.00102505
283 2 1.20711e-12 30.7174 20.5109 40074.2 40076.5 -405.963 -1.70048e-05 0.522545 0.000886726
284 2 3.2245 30.7174 22.7891 32520.7 32522.9 -70099 -0.00243712 0.361439 -0.00108238
285 2 1.61225 30.7174 25.0697 -200350 -200348 33378.5 -0.00403213 0.0997397 -0.000628369
286 2 2.41837 32.1137 20.5109 40074.2 40076.5 -405.95 -0.000220508 0.522965 -0.000389087
287 2 0.806124 32.1137 22.7891 32520.7 32522.9 -70099 6.44221e-05 0.360452 8.46784e-05
288 2 4.03062 32.1137 25.0697 -200350 -200348 33378.5 -0.00644553 0.0965269 0.00107218
289 2 0 33.5099 0 -202934 -202932 21677.2 -9.52928e-06 0.260128 0.000367593
290 2 3.2245 33.5099 2.27982 29921.5 29923.6 -81869.7 -9.22024e-05 0.376898 -5.36975e-05
291 2 1.61225 33.5099 4.558 40088.6 40090.7 -339.562 -7.54427e-05 0.377459 -0.000275727
292 2 2.41837 34.9062 0 -202934 -202932 21677.2 0.000186907 0.260104 0.000262884
293 2 0.806124 34.9062 2.27982 29921.5 29923.6 -81869.7 -1.63075e-05 0.376779 4.34631e-05
294 2 4.03062 34.9062 4.558 40088.6 40090.7 -339.563 -0.000128872 0.377394 -0.000122535
295 2 1.30916e-13 33.5099 6.83699 43254.4 43256.7 15582.1 -9.29981e-06 0.52181 -0.000274806
296 2 3.2245 33.5099 9.11598 43284.7 43286.8 15720.7 6.01403e-05 0.377296 -0.000102367
297 2 1.61225 33.5099 11.395 43284.2 43286.3 15715.8 -0.000403885 0.377802 0.000217475
298 2 2.41837 34.9062 6.83699 43254.4 43256.7 15582.1 0.000241429 0.521501 -0.000207849
299 2 0.806124 34.9062 9.11598 43284.7 43286.8 15720.7 0.000159948 0.376916 0.000273487
300 2 4.03062 34.9062 11.395 43284.2 43286.3 15715.8 -0.000432852 0.377823 -0.000258275
301 2 -3.38729e-13 33.5099 13.674 43284.1 43286.3 15715.6 1.61015e-05 0.52175 -0.000223864
302 2 3.2245 33.5099 15.953 43284.7 43286.8 15720.7 0.00143376 0.375112 0.00115559
303 2 1.61225 33.5099 18.232 43254.3 43256.5 15579 0.00187992 0.375284 0.000213566
304 2 2.41837 34.9062 13.674 43284.1 43286.3 15715.6 -0.000851608 0.522494 4.67329e-05
305 2 0.806124 34.9062 15.953 43284.7 43286.8 15720.7 -0.00023805 0.377068 -0.000509218
306 2 4.03062 34.9062 18.232 43254.3 43256.5 15579 0.00149182 0.37598 0.00069556
307 2 9.97655e-13 33.5099 20.5109 40074.2 40076.5 -405.969 -9.77623e-05 0.522597 0.000406098
308 2 3.2245 33.5099 22.7891 32520.7 32522.9 -70099 -0.000736489 0.360535 -0.000671062
309 2 1.61225 33.5099 25.0697 -200350 -200348 33378.5 0.000562331 0.0996662 -0.000290547
310 2 2.41837 34.9062 20.5109 40074.2 40076.5 -405.96 0.00169195 0.521746 0.000223722
311 2 0.806124 34.9062 22.7891 32520.7 32522.8 -70099 0.000587571 0.360039 0.000272428
312 2 4.03062 34.9062 25.0697 -200350 -200348 33378.5 -0.00247654 0.0992485 -0.000737526
313 2 0 36.3024 0 -202934 -202932 21677.2 2.69282e-06 0.260139 0.000366779
314 2 3.2245 36.3024 2.27982 29921.5 29923.6 -81869.7 -3.12631e-05 0.376769 5.60312e-06
315 2 1.61225 36.3024 4.558 40088.6 40090.7 -339.561 -9.45984e-05 0.377593 -0.000252867
316 2 2.41837 37.6987 0 -202934 -202932 21677.2 0.000362996 0.259937 0.000306643
317 2 0.806124 37.6987 2.27982 29921.5 29923.6 -81869.7 1.85777e-05 0.376733 0.000156191
318 2 4.03062 37.6987 4.558 40088.6 40090.7 -339.562 -0.000118554 0.377584 -0.000178564
319 2 5.76308e-14 36.3024 6.83699 43254.4 43256.7 15582.1 -9.30422e-06 0.521788 -0.000532222
320 2 3.2245 36.3024 9.11598 43284.7 43286.8 15720.7 0.000328179 0.376909 0.000130963
321 2 1.61225 36.3024 11.395 43284.2 43286.3 15715.8 3.97999e-05 0.377041 0.000628408
322 2 2.41837 37.6987 6.83699 43254.4 43256.7 15582.1 -3.8211e-05 0.521941 -0.000361719
323 2 0.806124 37.6987 9.11598 43284.7 43286.8 15720.7 7.46534e-05 0.376958 -4.24589e-05
324 2 4.03062 37.6987 11.395 43284.2 43286.3 15715.8 -0.000104813 0.377032 0.000130339
325 2 4.96156e-14 36.3024 13.674 43284.1 43286.3 15715.6 1.75319e-05 0.521769 0.000466281
326 2 3.2245 36.3024 15.953 43284.7 43286.8 15720.7 -0.000422236 0.376938 5.28189e-05
327 2 1.61225 36.3024 18.232 43254.3 43256.5 15579 -9.67059e-05 0.376881 -0.000526698
328 2 2.41837 37.6987 13.674 43284.1 43286.3 15715.6 -0.000374966 0.521894 0.000206202
329 2 0.806124 37.6987 15.953 43284.7 43286.8 15720.7 -0.000270123 0.377188 -0.000153785
330 2 4.03062 37.6987 18.232 43254.3 43256.5 15579 0.000474153 0.376701 0.000204522
331 2 -5.61821e-14 36.3024 20.5109 40074.2 40076.5 -405.962 -2.48985e-05 0.522543 -0.000439269
332 2 3.2245 36.3024 22.7891 32520.7 32522.9 -70099 0.000577326 0.36006 6.81013e-05
333 2 1.61225 36.3024 25.0697 -200350 -200348 33378.5 0.00154835 0.0984831 0.000335959
334 2 2.41837 37.6987 20.5109 40074.2 40076.5 -405.962 0.000218675 0.522402 -9.49507e-05
335 2 0.806124 37.6987 22.7891 32520.7 32522.8 -70099 7.19413e-05 0.360051 4.0188e-06
336 2 4.03062 37.6987 25.0697 -200350 -200348 33378.5 0.00114711 0.0987129 -0.000148577
337 2 0 39.0949 0 -202934 -202932 21677.2 5.46427e-06 0.26014 0.000264623
338 2 3.2245 39.0949 2.27982 29921.5 29923.6 -81869.7 6.89237e-05 0.376639 0.000111638
339 2 1.61225 39.0949 4.558 40088.6 40090.7 -339.561 -4.43394e-05 0.3775 3.94814e-05
340 2 2.41837 40.4912 0 -202934 -202932 21677.2 0.000361128 0.259961 0.000218334
341 2 0.806124 40.4912 2.27982 29921.5 29923.6 -81869.7 3.2435e-05 0.376691 0.000180954
342 2 4.03062 40.4912 4.558 40088.6 40090.7 -339.561 -5.43839e-05 0.377441 -8.01186e-05
343 2 8.21282e-14 39.0949 6.83699 43254.4 43256.7 15582.1 -8.61196e-06 0.521787 -0.000350258
344 2 3.2245 39.0949 9.11598 43284.7 43286.8 15720.7 3.67915e-05 0.377006 7.86938e-06