ITEM: TIMESTEP
0
ITEM: NUMBER OF ATOMS
3074
ITEM: BOX BOUNDS pp pp pp
0.0000000000000000e+00 3.8693948398131120e+01
0.0000000000000000e+00 4.4679925159782847e+01
0.0000000000000000e+00 6.0000000000000000e+01
ITEM: ATOMS id type x y z c_peratom[1] c_peratom[2] c_peratom[3] c_peratom[4] c_peratom[5] c_peratom[6]
1 2 0 0 0 -205991 -205989 7857.41 3.69133e-06 0.272006 0.000132115
2 2 3.2245 0 2.279 29869.7 29871.8 -82132 -4.05279e-05 0.365803 -4.32275e-05
3 2 1.61225 0 4.55799 43157 43159.1 13509.7 -1.19815e-05 0.365777 -0.00011309
4 2 2.41837 1.39625 0 -205991 -205989 7857.41 -0.000172206 0.271881 0.000157694
5 2 0.806124 1.39625 2.279 29869.7 29871.8 -82132 -2.10523e-05 0.365905 -8.73976e-05
6 2 4.03062 1.39625 4.55799 43157 43159.1 13509.7 -1.92133e-07 0.365772 -4.63602e-05
7 2 0 0 6.83699 43283.9 43286.2 15713.4 -1.0911e-06 0.544012 -2.13273e-05
8 2 3.2245 0 9.11598 43284.2 43286.4 15716 4.09516e-05 0.366078 1.52274e-05
9 2 1.61225 0 11.395 43284.2 43286.4 15716 -4.641e-05 0.365952 -3.15991e-05
10 2 2.41837 1.39625 6.83699 43283.9 43286.2 15713.4 0.000109255 0.544084 4.43221e-05
11 2 0.806124 1.39625 9.11598 43284.2 43286.4 15716 2.9652e-05 0.365948 0.000120444
12 2 4.03062 1.39625 11.395 43284.2 43286.4 15716 -0.00021268 0.365827 -0.000280943
13 2 0 0 13.674 43283.9 43286.2 15714.9 2.58513e-06 0.544012 -0.000152137
14 2 3.2245 0 15.953 43284.2 43286.4 15716 -2.10926e-05 0.36581 -2.68956e-05
15 2 1.61225 0 18.232 43284.2 43286.3 15714.5 6.06961e-05 0.365934 -5.60902e-06
16 2 2.41837 1.39625 13.674 43283.9 43286.2 15714.9 -0.000224209 0.543879 -0.000300457
17 2 0.806124 1.39625 15.953 43284.2 43286.4 15716 -3.15928e-05 0.365916 -0.000271658
18 2 4.03062 1.39625 18.232 43284.2 43286.3 15714.5 0.000545415 0.366166 0.000324243
19 2 0 0 20.511 43156.6 43158.9 13508.6 -2.88427e-06 0.544003 7.43029e-05
20 2 3.2245 0 22.79 29869.7 29871.8 -82132 0.000175573 0.366061 4.20283e-05
21 2 1.61225 0 25.069 -205991 -205989 7858.56 0.000368413 0.0939276 8.31674e-05
22 2 2.41837 1.39625 20.511 43156.6 43158.9 13508.6 0.000506453 0.544229 0.000262105
23 2 0.806124 1.39625 22.79 29869.7 29871.8 -82132 0.00012136 0.365995 0.000124186
24 2 4.03062 1.39625 25.069 -205991 -205989 7858.56 -5.52225e-05 0.0937247 -0.000223177
25 2 0 2.7925 0 -205991 -205989 7857.41 7.29186e-06 0.27201 0.000192137
26 2 3.2245 2.7925 2.279 29869.7 29871.8 -82132 -5.16787e-05 0.365839 -7.37485e-05
27 2 1.61225 2.7925 4.55799 43157 43159.1 13509.7 1.90504e-05 0.365885 -0.000160503
28 2 2.41837 4.18874 0 -205991 -205989 7857.41 -0.000173265 0.271805 7.08074e-05
29 2 0.806124 4.18874 2.279 29869.7 29871.8 -82132 -9.36112e-06 0.365924 -0.000110229
30 2 4.03062 4.18874 4.55799 43157 43159.1 13509.7 8.39483e-05 0.365874 -2.24642e-05
31 2 0 2.7925 6.83699 43283.9 43286.2 15713.4 -2.05928e-06 0.544005 8.06911e-05
32 2 3.2245 2.7925 9.11598 43284.2 43286.4 15716 -0.000102837 0.365873 -8.00536e-05
33 2 1.61225 2.7925 11.395 43284.2 43286.4 15716 -0.000191207 0.365772 -0.000253069
34 2 2.41837 4.18874 6.83699 43283.9 43286.2 15713.4 3.69426e-05 0.544024 8.18981e-05
35 2 0.806124 4.18874 9.11598 43284.2 43286.4 15716 -7.26493e-05 0.365843 4.16853e-05
36 2 4.03062 4.18874 11.395 43284.2 43286.4 15716 -1.33368e-05 0.366073 2.97771e-06
37 2 0 2.7925 13.674 43283.9 43286.2 15714.9 1.47526e-06 0.544018 -0.000505318
38 2 3.2245 2.7925 15.953 43284.2 43286.4 15716 0.000459217 0.366201 0.00011665
39 2 1.61225 2.7925 18.232 43284.2 43286.3 15714.5 0.000538903 0.366213 0.000225912
40 2 2.41837 4.18874 13.674 43283.9 43286.2 15714.9 0.000305479 0.544317 -0.000160257
41 2 0.806124 4.18874 15.953 43284.2 43286.4 15716 0.000293859 0.366114 -5.84627e-05
42 2 4.03062 4.18874 18.232 43284.2 43286.3 15714.5 -0.000287319 0.365593 -0.000392344
43 2 0 2.7925 20.511 43156.6 43158.9 13508.6 -1.00064e-05 0.544004 0.000378524
44 2 3.2245 2.7925 22.79 29869.7 29871.8 -82132 -6.27029e-05 0.36591 -4.89744e-06
45 2 1.61225 2.7925 25.069 -205991 -205989 7858.56 0.000170724 0.0936208 -3.06081e-05
46 2 2.41837 4.18874 20.511 43156.6 43158.9 13508.6 -5.71275e-05 0.54384 0.000123337
47 2 0.806124 4.18874 22.79 29869.7 29871.8 -82132 -5.16936e-05 0.365911 0.000118791
48 2 4.03062 4.18874 25.069 -205991 -205989 7858.56 -0.00122126 0.0940845 0.000345611
49 2 0 5.58499 0 -205991 -205989 7857.41 3.87431e-06 0.272012 -8.51174e-05
50 2 3.2245 5.58499 2.279 29869.7 29871.8 -82132 3.57042e-05 0.365924 -3.16266e-05
51 2 1.61225 5.58499 4.55799 43157 43159.1 13509.7 9.84361e-05 0.36596 1.94476e-05
52 2 2.41837 6.98124 0 -205991 -205989 7857.41 -3.69465e-05 0.271901 -0.000174463
53 2 0.806124 6.98124 2.279 29869.7 29871.8 -82132 2.08371e-05 0.36596 -8.30479e-05
54 2 4.03062 6.98124 4.55799 43157 43159.1 13509.7 0.000144566 0.365729 -7.05948e-05
55 2 0 5.58499 6.83699 43283.9 43286.2 15713.4 2.16739e-06 0.544008 0.00026155
56 2 3.2245 5.58499 9.11598 43284.2 43286.4 15716 -0.000286377 0.36572 -0.000127893
57 2 1.61225 5.58499 11.395 43284.2 43286.4 15716 -6.6894e-05 0.365991 -0.000370891
58 2 2.41837 6.98124 6.83699 43283.9 43286.2 15713.4 -0.000147082 0.543628 1.01119e-05
59 2 0.806124 6.98124 9.11598 43284.2 43286.4 15716 -0.000131048 0.365785 -0.000175429
60 2 4.03062 6.98124 11.395 43284.2 43286.4 15716 0.000537252 0.366817 0.000554686
61 2 0 5.58499 13.674 43283.9 43286.2 15714.9 -1.69688e-05 0.543997 -0.000394436
62 2 3.2245 5.58499 15.953 43284.2 43286.4 15716 0.000549431 0.366091 -0.00013181
63 2 1.61225 5.58499 18.232 43284.2 43286.3 15714.5 0.000257781 0.365811 0.000360571
64 2 2.41837 6.98124 13.674 43283.9 43286.2 15714.9 0.000944062 0.544974 0.00016256
65 2 0.806124 6.98124 15.953 43284.2 43286.4 15716 0.000324638 0.366054 0.000430715
66 2 4.03062 6.98124 18.232 43284.2 43286.3 15714.5 -0.00170322 0.364852 -0.000931279
67 2 0 5.58499 20.511 43156.6 43158.9 13508.6 2.24443e-05 0.544032 0.000497099
68 2 3.2245 5.58499 22.79 29869.7 29871.8 -82132 -0.000622633 0.36591 5.77013e-05
69 2 1.61225 5.58499 25.069 -205991 -205989 7858.56 -0.00169169 0.0938693 -0.000168525
70 2 2.41837 6.98124 20.511 43156.6 43158.9 13508.6 -0.00186302 0.543124 -0.000164083
71 2 0.806124 6.98124 22.79 29869.7 29871.8 -82132 -0.000621654 0.365862 -8.68628e-05
72 2 4.03062 6.98124 25.069 -205991 -205989 7858.57 0.00238065 0.0945207 0.000727982
73 2 0 8.37749 0 -205991 -205989 7857.41 -1.96173e-06 0.272007 -0.000395861
74 2 3.2245 8.37749 2.279 29869.7 29871.8 -82132 0.000114323 0.366026 -5.29135e-06
75 2 1.61225 8.37749 4.55799 43157 43159.1 13509.7 0.000108437 0.365862 9.61051e-05
76 2 2.41837 9.77373 0 -205991 -205989 7857.41 5.00572e-05 0.2722 -0.000274551
77 2 0.806124 9.77373 2.279 29869.7 29871.8 -82132 3.50358e-05 0.365997 -6.18631e-05
78 2 4.03062 9.77373 4.55799 43157 43159.1 13509.7 7.91654e-05 0.365406 -0.000261497
79 2 0 8.37749 6.83699 43283.9 43286.2 15713.4 9.32629e-06 0.544028 0.000128202
80 2 3.2245 8.37749 9.11598 43284.3 43286.4 15716 3.2008e-05 0.36608 0.000171639
81 2 1.61225 8.37749 11.395 43284.2 43286.4 15716 0.000462433 0.366709 4.48734e-05
82 2 2.41837 9.77373 6.83699 43283.9 43286.2 15713.4 -0.000173412 0.543312 -0.000166997
83 2 0.806124 9.77373 9.11598 43284.2 43286.4 15716 2.01757e-05 0.365984 -0.000221395
84 2 4.03062 9.77373 11.395 43284.2 43286.4 15716 0.000594025 0.366739 0.000344142
85 2 0 8.37749 13.674 43283.9 43286.2 15714.9 -2.49625e-05 0.543972 0.000370398
86 2 3.2245 8.37749 15.953 43284.2 43286.4 15716 -0.00145324 0.36431 -0.00124406
87 2 1.61225 8.37749 18.232 43284.2 43286.3 15714.5 -0.00209999 0.364105 -0.000311542
88 2 2.41837 9.77373 13.674 43283.9 43286.2 15714.9 0.000218332 0.544018 -9.19444e-05
89 2 0.806124 9.77373 15.953 43284.2 43286.4 15716 -0.000642592 0.364992 0.00037605
90 2 4.03062 9.77373 18.232 43284.2 43286.4 15714.6 0.000577172 0.366892 0.000744119
91 2 0 8.37749 20.511 43156.6 43158.9 13508.6 9.92081e-05 0.544071 -0.00030581
92 2 3.2245 8.37749 22.79 29869.7 29871.8 -82132 0.000344833 0.366281 0.000285803
93 2 1.61225 8.37749 25.069 -205991 -205989 7858.56 -0.00104332 0.0951339 0.000220915
94 2 2.41837 9.77373 20.511 43156.6 43159 13508.6 -0.000523075 0.544367 0.000436164
95 2 0.806124 9.77373 22.79 29869.7 29871.8 -82132 -0.000207584 0.366216 -6.22721e-05
96 2 4.03062 9.77373 25.069 -205991 -205989 7858.56 0.00728487 0.0915676 -0.00152994
97 2 0 11.17 0 -205991 -205989 7857.41 -3.46873e-06 0.271994 -0.000356683
98 2 3.2245 11.17 2.279 29869.7 29871.8 -82132 8.6188e-05 0.366085 -4.54362e-05
99 2 1.61225 11.17 4.55799 43157 43159.1 13509.7 9.4178e-06 0.365613 -0.00014043
100 2 2.41837 12.5662 0 -205991 -205989 7857.41 -8.50398e-06 0.272526 -5.73926e-05
101 2 0.806124 12.5662 2.279 29869.7 29871.8 -82132 1.77642e-05 0.366011 -6.07415e-05
102 2 4.03062 12.5662 4.55799 43157 43159.1 13509.7 -5.26072e-05 0.365275 -0.00042739
103 2 0 11.17 6.83699 43283.9 43286.2 15713.4 7.03592e-06 0.54404 -0.000355766
104 2 3.2245 11.17 9.11598 43284.2 43286.4 15716 0.000602343 0.366883 0.000508124
105 2 1.61225 11.17 11.395 43284.2 43286.4 15716 0.000781584 0.367162 0.0005651
106 2 2.41837 12.5662 6.83699 43283.9 43286.2 15713.4 2.43586e-06 0.543587 -0.000321712
107 2 0.806124 12.5662 9.11598 43284.3 43286.4 15716 0.000204095 0.366343 -7.64118e-05
108 2 4.03062 12.5662 11.395 43284.2 43286.4 15716 -0.00050323 0.364179 -0.00106209
109 2 0 11.17 13.674 43283.9 43286.2 15714.9 2.9823e-05 0.544028 0.00104857
110 2 3.2245 11.17 15.953 43284.3 43286.4 15716 -0.00172777 0.364183 -0.000798916
111 2 1.61225 11.17 18.232 43284.2 43286.3 15714.5 -0.00259193 0.364103 -0.000653646
112 2 2.41837 12.5662 13.674 43283.9 43286.2 15714.8 -0.00163587 0.540786 -0.000877794
113 2 0.806124 12.5662 15.953 43284.2 43286.4 15716 -0.00183257 0.36339 -0.00068783
114 2 4.03062 12.5662 18.232 43284.2 43286.4 15714.6 0.00432863 0.370966 0.00299614
115 2 0 11.17 20.511 43156.6 43158.9 13508.6 8.37754e-06 0.543998 -0.000758784
116 2 3.2245 11.17 22.79 29869.7 29871.8 -82132 0.00308949 0.36689 0.000574184
117 2 1.61225 11.17 25.069 -205991 -205989 7858.57 0.0040883 0.0951175 0.00031718
118 2 2.41837 12.5662 20.511 43156.7 43159 13508.6 0.00280715 0.547008 0.0013067
119 2 0.806124 12.5662 22.79 29869.7 29871.8 -82132 0.000318795 0.366221 8.39923e-05
120 2 4.03062 12.5662 25.069 -205991 -205989 7858.55 -0.0044236 0.0844319 -0.00549925
121 2 0 13.9625 0 -205991 -205989 7857.41 -2.63823e-07 0.271983 3.57405e-05
122 2 3.2245 13.9625 2.279 29869.7 29871.8 -82132 -2.38922e-05 0.366059 -9.63461e-05
123 2 1.61225 13.9625 4.55799 43157 43159.1 13509.7 -0.000112185 0.365401 -0.000469189
124 2 2.41837 15.3587 0 -205991 -205989 7857.41 -0.000103633 0.272683 0.000270946
125 2 0.806124 15.3587 2.279 29869.7 29871.8 -82132 -9.87686e-06 0.365995 -4.68471e-05
126 2 4.03062 15.3587 4.55799 43157 43159.1 13509.7 -0.000138121 0.365478 -0.000416741
127 2 0 13.9625 6.83699 43283.9 43286.2 15713.4 -4.85495e-06 0.544019 -0.000745378
128 2 3.2245 13.9625 9.11598 43284.2 43286.4 15716 0.000868891 0.367584 0.000465877
129 2 1.61225 13.9625 11.395 43284.2 43286.4 15716 0.000519664 0.366577 0.00065036
130 2 2.41837 15.3587 6.83699 43283.9 43286.2 15713.4 0.000143148 0.544335 -0.000365391
131 2 0.806124 15.3587 9.11598 43284.3 43286.4 15716 0.00024612 0.366639 2.803e-05
132 2 4.03062 15.3587 11.395 43284.2 43286.4 15716 -0.00132326 0.361148 -0.00182228
133 2 0 13.9625 13.674 43283.9 43286.2 15714.8 0.000137253 0.544261 0.000810875
134 2 3.2245 13.9625 15.953 43284.3 43286.4 15716 -9.69045e-05 0.366143 0.000203734
135 2 1.61225 13.9625 18.232 43284.2 43286.3 15714.6 -1.71456e-05 0.367145 8.01659e-05
136 2 2.41837 15.3587 13.674 43283.9 43286.2 15714.9 -0.00207022 0.538679 -0.00100778
137 2 0.806124 15.3587 15.953 43284.2 43286.4 15716 -0.00150819 0.363498 -0.00124469
138 2 4.03062 15.3587 18.232 43284.2 43286.3 15714.5 0.0115 0.380881 0.00685119
139 2 0 13.9625 20.511 43156.7 43159 13508.6 -0.000119429 0.543882 -4.31198e-05
140 2 3.2245 13.9625 22.79 29869.7 29871.8 -82132 0.00476677 0.363542 -0.000992082
141 2 1.61225 13.9625 25.069 -205991 -205989 7858.56 0.00746004 0.0918148 -0.000362385
142 2 2.41837 15.3587 20.511 43156.6 43158.9 13508.6 0.00724457 0.55192 0.00225627
143 2 0.806124 15.3587 22.79 29869.7 29871.8 -82132 -0.000117555 0.365911 -3.47631e-05
144 2 4.03062 15.3587 25.069 -205991 -205989 7858.56 -0.0235558 0.0865951 -0.003932
145 2 0 16.755 0 -205991 -205989 7857.41 2.28857e-06 0.271979 0.000336819
146 2 3.2245 16.755 2.279 29869.7 29871.8 -82132 -8.59276e-05 0.365982 -8.57011e-05
147 2 1.61225 16.755 4.55799 43157 43159.1 13509.7 -0.000144206 0.365351 -0.000509909
148 2 2.41837 18.1512 0 -205991 -205989 7857.41 -9.96976e-05 0.272672 0.000316401
149 2 0.806124 18.1512 2.279 29869.7 29871.8 -82132 -1.60686e-05 0.365969 -1.83786e-05
150 2 4.03062 18.1512 4.55799 43157 43159.1 13509.7 -0.000114469 0.365773 -0.000245472
151 2 0 16.755 6.83699 43283.9 43286.2 15713.4 -1.06229e-05 0.543978 -0.000696336
152 2 3.2245 16.755 9.11598 43284.2 43286.4 15716 0.000598134 0.367601 9.76471e-05
153 2 1.61225 16.755 11.395 43284.2 43286.4 15716 -3.68463e-06 0.364902 0.000281141
154 2 2.41837 18.1512 6.83699 43283.9 43286.2 15713.4 0.000117909 0.545037 -0.000250107
155 2 0.806124 18.1512 9.11598 43284.3 43286.4 15716 0.000152139 0.366788 2.76161e-05
156 2 4.03062 18.1512 11.395 43284.2 43286.4 15716 -0.000888036 0.360288 -0.00111471
157 2 0 16.755 13.674 43283.9 43286.2 15714.8 0.000152839 0.54456 -4.40412e-05
158 2 3.2245 16.755 15.953 43284.3 43286.4 15716 0.000202168 0.366676 0.000225579
159 2 1.61225 16.755 18.232 43284.2 43286.4 15714.6 0.00113925 0.369512 0.000454936
160 2 2.41837 18.1512 13.674 43283.9 43286.2 15714.9 -0.00106326 0.539033 -0.000498185
161 2 0.806124 18.1512 15.953 43284.2 43286.4 15716 -0.000552482 0.364815 -0.000712295
162 2 4.03062 18.1512 18.232 43284.2 43286.3 15714.5 0.00881344 0.379422 0.00456777
163 2 0 16.755 20.511 43156.7 43159 13508.6 -2.23531e-05 0.543972 4.16789e-05
164 2 3.2245 16.755 22.79 29869.6 29871.7 -82132 -0.00432675 0.350846 -0.00394376
165 2 1.61225 16.755 25.069 -205991 -205989 7858.56 0.0051533 0.0859994 -0.000981706
166 2 2.41837 18.1512 20.511 43156.6 43158.9 13508.5 0.00670619 0.554629 0.00161297
167 2 0.806124 18.1512 22.79 29869.7 29871.8 -82132 5.94329e-05 0.366002 1.90575e-05
168 2 4.03062 18.1512 25.069 -205991 -205989 7858.57 -0.015336 0.0969967 -0.000446421
169 2 0 19.5475 0 -205991 -205989 7857.41 1.33471e-06 0.27198 0.000195251
170 2 3.2245 19.5475 2.279 29869.7 29871.8 -82132 -4.35518e-05 0.365923 -3.08717e-05
171 2 1.61225 19.5475 4.55799 43157 43159.1 13509.7 -6.34599e-05 0.365384 -0.000210895
172 2 2.41837 20.9437 0 -205991 -205989 7857.41 -1.04141e-08 0.272641 -2.32946e-08
173 2 0.806124 20.9437 2.279 29869.7 29871.8 -82132 -8.60226e-09 0.365957 -1.78135e-09
174 2 4.03062 20.9437 4.55799 43157 43159.1 13509.7 1.02211e-09 0.365899 3.17565e-09
175 2 0 19.5475 6.83699 43283.9 43286.2 15713.4 -4.95286e-06 0.54395 -0.000273379
176 2 3.2245 19.5475 9.11598 43284.2 43286.4 15716 0.000173083 0.367215 -5.17585e-05
177 2 1.61225 19.5475 11.395 43284.2 43286.4 15716 -0.000112281 0.363433 1.97674e-05
178 2 2.41837 20.9437 6.83699 43283.9 43286.2 15713.4 -3.04505e-10 0.545306 1.78135e-09
179 2 0.806124 20.9437 9.11598 43284.3 43286.4 15716 -7.70058e-09 0.366823 1.04553e-11
180 2 4.03062 20.9437 11.395 43284.2 43286.4 15716 1.63891e-09 0.360401 -8.48325e-10
181 2 0 19.5475 13.674 43283.9 43286.2 15714.8 5.69078e-05 0.544711 -0.000205186
182 2 3.2245 19.5475 15.953 43284.3 43286.4 15716 0.000200532 0.367857 0.000183531
183 2 1.61225 19.5475 18.232 43284.2 43286.4 15714.6 0.000609128 0.370828 0.00024174
184 2 2.41837 20.9437 13.674 43283.9 43286.2 15714.9 -7.21237e-11 0.539543 1.46653e-09
185 2 0.806124 20.9437 15.953 43284.2 43286.4 15716 -9.30868e-09 0.365418 -3.1363e-09
186 2 4.03062 20.9437 18.232 43284.2 43286.3 15714.5 1.14956e-09 0.372447 2.47401e-09
187 2 0 19.5475 20.511 43156.7 43159 13508.6 1.62068e-05 0.544093 -4.06245e-05
188 2 3.2245 19.5475 22.79 29869.6 29871.7 -82132 -0.00452581 0.341892 -0.00216021
189 2 1.61225 19.5475 25.069 -205991 -205989 7858.56 0.00121201 0.0815628 -0.000540693
190 2 2.41837 20.9437 20.511 43156.6 43158.9 13508.5 -1.86436e-09 0.553989 -4.78279e-09
191 2 0.806124 20.9437 22.79 29869.7 29871.8 -82132 -9.28743e-09 0.366021 -2.19938e-09
192 2 4.03062 20.9437 25.069 -205991 -205989 7858.58 8.04546e-09 0.100348 1.72901e-08
193 2 0 22.34 0 -205991 -205989 7857.41 -1.32776e-06 0.27198 -0.000195219
194 2 3.2245 22.34 2.279 29869.7 29871.8 -82132 4.35505e-05 0.365923 3.0867e-05
195 2 1.61225 22.34 4.55799 43157 43159.1 13509.7 6.34611e-05 0.365384 0.000210897
196 2 2.41837 23.7362 0 -205991 -205989 7857.41 9.96905e-05 0.272672 -0.000316422
197 2 0.806124 23.7362 2.279 29869.7 29871.8 -82132 1.60769e-05 0.365969 1.83918e-05
198 2 4.03062 23.7362 4.55799 43157 43159.1 13509.7 0.000114464 0.365773 0.000245466
199 2 0 22.34 6.83699 43283.9 43286.2 15713.4 4.94881e-06 0.54395 0.000273383
200 2 3.2245 22.34 9.11598 43284.2 43286.4 15716 -0.000173085 0.367215 5.17513e-05
201 2 1.61225 22.34 11.395 43284.2 43286.4 15716 0.000112284 0.363433 -1.97649e-05
202 2 2.41837 23.7362 6.83699 43283.9 43286.2 15713.4 -0.000117911 0.545037 0.0002501
203 2 0.806124 23.7362 9.11598 43284.3 43286.4 15716 -0.000152133 0.366788 -2.7607e-05
204 2 4.03062 23.7362 11.395 43284.2 43286.4 15716 0.000888029 0.360288 0.0011147
205 2 0 22.34 13.674 43283.9 43286.2 15714.8 -5.69106e-05 0.544711 0.00020519
206 2 3.2245 22.34 15.953 43284.3 43286.4 15716 -0.000200532 0.367857 -0.000183531
207 2 1.61225 22.34 18.232 43284.2 43286.4 15714.6 -0.000609129 0.370828 -0.00024175
208 2 2.41837 23.7362 13.674 43283.9 43286.2 15714.9 0.00106325 0.539033 0.000498178
209 2 0.806124 23.7362 15.953 43284.2 43286.4 15716 0.000552487 0.364815 0.000712304
210 2 4.03062 23.7362 18.232 43284.2 43286.3 15714.5 -0.00881344 0.379422 -0.00456776
211 2 0 22.34 20.511 43156.7 43159 13508.6 -1.62085e-05 0.544093 4.06307e-05
212 2 3.2245 22.34 22.79 29869.6 29871.7 -82132 0.00452581 0.341892 0.00216021
213 2 1.61225 22.34 25.069 -205991 -205989 7858.56 -0.00121202 0.0815628 0.000540658
214 2 2.41837 23.7362 20.511 43156.6 43158.9 13508.5 -0.0067062 0.554629 -0.00161297
215 2 0.806124 23.7362 22.79 29869.7 29871.8 -82132 -5.94311e-05 0.366002 -1.90561e-05
216 2 4.03062 23.7362 25.069 -205991 -205989 7858.57 0.015336 0.0969967 0.000446441
217 2 0 25.1325 0 -205991 -205989 7857.41 -2.29631e-06 0.271979 -0.000336812
218 2 3.2245 25.1325 2.279 29869.7 29871.8 -82132 8.59273e-05 0.365982 8.56976e-05
219 2 1.61225 25.1325 4.55799 43157 43159.1 13509.7 0.000144207 0.365351 0.000509916
220 2 2.41837 26.5287 0 -205991 -205989 7857.41 0.000103635 0.272683 -0.000270943
221 2 0.806124 26.5287 2.279 29869.7 29871.8 -82132 9.87651e-06 0.365995 4.68484e-05
222 2 4.03062 26.5287 4.55799 43157 43159.1 13509.7 0.00013812 0.365478 0.000416738
223 2 0 25.1325 6.83699 43283.9 43286.2 15713.4 1.06126e-05 0.543978 0.000696338
224 2 3.2245 25.1325 9.11598 43284.2 43286.4 15716 -0.000598137 0.367601 -9.76585e-05
225 2 1.61225 25.1325 11.395 43284.2 43286.4 15716 3.68573e-06 0.364902 -0.000281141
226 2 2.41837 26.5287 6.83699 43283.9 43286.2 15713.4 -0.00014315 0.544335 0.000365389
227 2 0.806124 26.5287 9.11598 43284.3 43286.4 15716 -0.00024612 0.366639 -2.80288e-05
228 2 4.03062 26.5287 11.395 43284.2 43286.4 15716 0.00132326 0.361148 0.00182228
229 2 0 25.1325 13.674 43283.9 43286.2 15714.8 -0.000152847 0.54456 4.40442e-05
230 2 3.2245 25.1325 15.953 43284.3 43286.4 15716 -0.000202168 0.366676 -0.00022558
231 2 1.61225 25.1325 18.232 43284.2 43286.4 15714.6 -0.00113926 0.369512 -0.000454939
232 2 2.41837 26.5287 13.674 43283.9 43286.2 15714.9 0.00207022 0.538679 0.00100778
233 2 0.806124 26.5287 15.953 43284.2 43286.4 15716 0.00150819 0.363498 0.00124469
234 2 4.03062 26.5287 18.232 43284.2 43286.3 15714.5 -0.0115 0.380881 -0.00685118
235 2 0 25.1325 20.511 43156.7 43159 13508.6 2.23462e-05 0.543972 -4.16708e-05
236 2 3.2245 25.1325 22.79 29869.6 29871.7 -82132 0.00432675 0.350846 0.00394375
237 2 1.61225 25.1325 25.069 -205991 -205989 7858.56 -0.0051533 0.0859994 0.0009817
238 2 2.41837 26.5287 20.511 43156.6 43158.9 13508.6 -0.00724457 0.55192 -0.00225627
239 2 0.806124 26.5287 22.79 29869.7 29871.8 -82132 0.000117554 0.365911 3.47658e-05
240 2 4.03062 26.5287 25.069 -205991 -205989 7858.56 0.0235558 0.0865951 0.003932
241 2 0 27.925 0 -205991 -205989 7857.41 2.62917e-07 0.271983 -3.57379e-05
242 2 3.2245 27.925 2.279 29869.7 29871.8 -82132 2.38896e-05 0.366059 9.63467e-05
243 2 1.61225 27.925 4.55799 43157 43159.1 13509.7 0.000112182 0.365401 0.000469186
244 2 2.41837 29.3212 0 -205991 -205989 7857.41 8.49951e-06 0.272526 5.73825e-05
245 2 0.806124 29.3212 2.279 29869.7 29871.8 -82132 -1.77594e-05 0.366011 6.0748e-05
246 2 4.03062 29.3212 4.55799 43157 43159.1 13509.7 5.2604e-05 0.365275 0.000427388
247 2 0 27.925 6.83699 43283.9 43286.2 15713.4 4.85127e-06 0.544019 0.000745375
248 2 3.2245 27.925 9.11598 43284.2 43286.4 15716 -0.000868891 0.367584 -0.000465877
249 2 1.61225 27.925 11.395 43284.2 43286.4 15716 -0.000519668 0.366577 -0.000650362
250 2 2.41837 29.3212 6.83699 43283.9 43286.2 15713.4 -2.43581e-06 0.543587 0.000321708
251 2 0.806124 29.3212 9.11598 43284.3 43286.4 15716 -0.000204093 0.366343 7.64173e-05
252 2 4.03062 29.3212 11.395 43284.2 43286.4 15716 0.000503226 0.364179 0.00106208
253 2 0 27.925 13.674 43283.9 43286.2 15714.8 -0.000137257 0.544261 -0.00081088
254 2 3.2245 27.925 15.953 43284.3 43286.4 15716 9.69042e-05 0.366143 -0.000203729
255 2 1.61225 27.925 18.232 43284.2 43286.3 15714.6 1.71418e-05 0.367145 -8.01688e-05
256 2 2.41837 29.3212 13.674 43283.9 43286.2 15714.8 0.00163587 0.540786 0.00087779
257 2 0.806124 29.3212 15.953 43284.2 43286.4 15716 0.00183257 0.36339 0.000687835
258 2 4.03062 29.3212 18.232 43284.2 43286.4 15714.6 -0.00432863 0.370966 -0.00299613
259 2 0 27.925 20.511 43156.7 43159 13508.6 0.000119427 0.543882 4.31189e-05
260 2 3.2245 27.925 22.79 29869.7 29871.8 -82132 -0.00476677 0.363542 0.000992087
261 2 1.61225 27.925 25.069 -205991 -205989 7858.56 -0.00746005 0.0918148 0.000362382
262 2 2.41837 29.3212 20.511 43156.7 43159 13508.6 -0.00280716 0.547008 -0.0013067
263 2 0.806124 29.3212 22.79 29869.7 29871.8 -82132 -0.000318792 0.366221 -8.39928e-05
264 2 4.03062 29.3212 25.069 -205991 -205989 7858.55 0.0044236 0.0844319 0.00549926
265 2 0 30.7174 0 -205991 -205989 7857.41 3.46929e-06 0.271994 0.000356692
266 2 3.2245 30.7174 2.279 29869.7 29871.8 -82132 -8.61868e-05 0.366085 4.54329e-05
267 2 1.61225 30.7174 4.55799 43157 43159.1 13509.7 -9.41517e-06 0.365613 0.000140434
268 2 2.41837 32.1137 0 -205991 -205989 7857.41 -5.00578e-05 0.2722 0.000274551
269 2 0.806124 32.1137 2.279 29869.7 29871.8 -82132 -3.5034e-05 0.365997 6.18623e-05
270 2 4.03062 32.1137 4.55799 43157 43159.1 13509.7 -7.91667e-05 0.365406 0.000261496
271 2 0 30.7174 6.83699 43283.9 43286.2 15713.4 -7.03869e-06 0.54404 0.000355766
272 2 3.2245 30.7174 9.11598 43284.2 43286.4 15716 -0.000602345 0.366883 -0.00050813
273 2 1.61225 30.7174 11.395 43284.2 43286.4 15716 -0.000781581 0.367162 -0.000565097
274 2 2.41837 32.1137 6.83699 43283.9 43286.2 15713.4 0.000173413 0.543312 0.000166999
275 2 0.806124 32.1137 9.11598 43284.2 43286.4 15716 -2.01755e-05 0.365984 0.000221397
276 2 4.03062 32.1137 11.395 43284.2 43286.4 15716 -0.000594025 0.366739 -0.000344142
277 2 0 30.7174 13.674 43283.9 43286.2 15714.9 -2.98283e-05 0.544028 -0.00104857
278 2 3.2245 30.7174 15.953 43284.3 43286.4 15716 0.00172777 0.364183 0.000798917
279 2 1.61225 30.7174 18.232 43284.2 43286.3 15714.5 0.00259193 0.364103 0.000653646
280 2 2.41837 32.1137 13.674 43283.9 43286.2 15714.9 -0.00021833 0.544018 9.19452e-05
281 2 0.806124 32.1137 15.953 43284.2 43286.4 15716 0.000642594 0.364992 -0.000376051
282 2 4.03062 32.1137 18.232 43284.2 43286.4 15714.6 -0.000577173 0.366892 -0.000744119
283 2 0 30.7174 20.511 43156.6 43158.9 13508.6 -8.38052e-06 0.543998 0.00075879
284 2 3.2245 30.7174 22.79 29869.7 29871.8 -82132 -0.00308949 0.36689 -0.000574184
285 2 1.61225 30.7174 25.069 -205991 -205989 7858.57 -0.0040883 0.0951175 -0.00031719
286 2 2.41837 32.1137 20.511 43156.6 43159 13508.6 0.000523074 0.544367 -0.000436164
287 2 0.806124 32.1137 22.79 29869.7 29871.8 -82132 0.000207583 0.366216 6.22732e-05
288 2 4.03062 32.1137 25.069 -205991 -205989 7858.56 -0.00728487 0.0915676 0.00152994
289 2 0 33.5099 0 -205991 -205989 7857.41 1.96052e-06 0.272007 0.000395864
290 2 3.2245 33.5099 2.279 29869.7 29871.8 -82132 -0.000114326 0.366026 5.29079e-06
291 2 1.61225 33.5099 4.55799 43157 43159.1 13509.7 -0.000108432 0.365862 -9.61023e-05
292 2 2.41837 34.9062 0 -205991 -205989 7857.41 3.69403e-05 0.271901 0.000174454
293 2 0.806124 34.9062 2.279 29869.7 29871.8 -82132 -2.08349e-05 0.36596 8.30534e-05
294 2 4.03062 34.9062 4.55799 43157 43159.1 13509.7 -0.000144564 0.365729 7.05913e-05
295 2 0 33.5099 6.83699 43283.9 43286.2 15713.4 -9.32604e-06 0.544028 -0.000128198
296 2 3.2245 33.5099 9.11598 43284.3 43286.4 15716 -3.20114e-05 0.36608 -0.000171643
297 2 1.61225 33.5099 11.395 43284.2 43286.4 15716 -0.000462432 0.366709 -4.48748e-05
298 2 2.41837 34.9062 6.83699 43283.9 43286.2 15713.4 0.00014708 0.543628 -1.01128e-05
299 2 0.806124 34.9062 9.11598 43284.2 43286.4 15716 0.000131047 0.365785 0.000175429
300 2 4.03062 34.9062 11.395 43284.2 43286.4 15716 -0.000537251 0.366817 -0.000554693
301 2 0 33.5099 13.674 43283.9 43286.2 15714.9 2.49621e-05 0.543972 -0.000370394
302 2 3.2245 33.5099 15.953 43284.2 43286.4 15716 0.00145324 0.36431 0.00124406
303 2 1.61225 33.5099 18.232 43284.2 43286.3 15714.5 0.00209999 0.364105 0.000311544
304 2 2.41837 34.9062 13.674 43283.9 43286.2 15714.9 -0.000944061 0.544974 -0.000162562
305 2 0.806124 34.9062 15.953 43284.2 43286.4 15716 -0.000324638 0.366054 -0.00043071
306 2 4.03062 34.9062 18.232 43284.2 43286.3 15714.5 0.00170322 0.364852 0.000931286
307 2 0 33.5099 20.511 43156.6 43158.9 13508.6 -9.9206e-05 0.544071 0.000305815
308 2 3.2245 33.5099 22.79 29869.7 29871.8 -82132 -0.000344835 0.366281 -0.000285807
309 2 1.61225 33.5099 25.069 -205991 -205989 7858.56 0.00104333 0.0951339 -0.000220913
310 2 2.41837 34.9062 20.511 43156.6 43158.9 13508.6 0.00186301 0.543124 0.000164077
311 2 0.806124 34.9062 22.79 29869.7 29871.8 -82132 0.000621656 0.365862 8.68648e-05
312 2 4.03062 34.9062 25.069 -205991 -205989 7858.57 -0.00238065 0.0945207 -0.000727974
313 2 0 36.3024 0 -205991 -205989 7857.41 -3.87355e-06 0.272012 8.51152e-05
314 2 3.2245 36.3024 2.279 29869.7 29871.8 -82132 -3.57051e-05 0.365924 3.16264e-05
315 2 1.61225 36.3024 4.55799 43157 43159.1 13509.7 -9.84375e-05 0.36596 -1.94472e-05
316 2 2.41837 37.6987 0 -205991 -205989 7857.41 0.00017328 0.271805 -7.07819e-05
317 2 0.806124 37.6987 2.279 29869.7 29871.8 -82132 9.36489e-06 0.365924 0.000110223
318 2 4.03062 37.6987 4.55799 43157 43159.1 13509.7 -8.39514e-05 0.365874 2.24645e-05
319 2 0 36.3024 6.83699 43283.9 43286.2 15713.4 -2.16615e-06 0.544008 -0.000261552
320 2 3.2245 36.3024 9.11598 43284.2 43286.4 15716 0.000286378 0.36572 0.000127893
321 2 1.61225 36.3024 11.395 43284.2 43286.4 15716 6.68937e-05 0.365991 0.000370892
322 2 2.41837 37.6987 6.83699 43283.9 43286.2 15713.4 -3.69432e-05 0.544024 -8.19015e-05
323 2 0.806124 37.6987 9.11598 43284.2 43286.4 15716 7.2654e-05 0.365843 -4.16825e-05
324 2 4.03062 37.6987 11.395 43284.2 43286.4 15716 1.33367e-05 0.366073 -2.96973e-06
325 2 0 36.3024 13.674 43283.9 43286.2 15714.9 1.69696e-05 0.543997 0.000394435
326 2 3.2245 36.3024 15.953 43284.2 43286.4 15716 -0.00054943 0.366091 0.000131808
327 2 1.61225 36.3024 18.232 43284.2 43286.3 15714.5 -0.000257783 0.36581 -0.000360571
328 2 2.41837 37.6987 13.674 43283.9 43286.2 15714.9 -0.00030548 0.544317 0.000160254
329 2 0.806124 37.6987 15.953 43284.2 43286.4 15716 -0.000293854 0.366114 5.84619e-05
330 2 4.03062 37.6987 18.232 43284.2 43286.3 15714.5 0.000287314 0.365593 0.000392339
331 2 0 36.3024 20.511 43156.6 43158.9 13508.6 -2.24444e-05 0.544032 -0.000497099
332 2 3.2245 36.3024 22.79 29869.7 29871.8 -82132 0.000622632 0.36591 -5.77014e-05
333 2 1.61225 36.3024 25.069 -205991 -205989 7858.56 0.00169169 0.0938693 0.000168527
334 2 2.41837 37.6987 20.511 43156.6 43158.9 13508.6 5.71282e-05 0.54384 -0.000123333
335 2 0.806124 37.6987 22.79 29869.7 29871.8 -82132 5.16965e-05 0.365911 -0.000118792
336 2 4.03062 37.6987 25.069 -205991 -205989 7858.56 0.00122124 0.0940845 -0.000345632
337 2 0 39.0949 0 -205991 -205989 7857.41 -7.30217e-06 0.27201 -0.000192153
338 2 3.2245 39.0949 2.279 29869.7 29871.8 -82132 5.16796e-05 0.365839 7.37489e-05
339 2 1.61225 39.0949 4.55799 43157 43159.1 13509.7 -1.90557e-05 0.365885 0.000160499
340 2 2.41837 40.4912 0 -205991 -205989 7857.41 0.000172205 0.271881 -0.000157691
341 2 0.806124 40.4912 2.279 29869.7 29871.8 -82132 2.10513e-05 0.365905 8.73977e-05
342 2 4.03062 40.4912 4.55799 43157 43159.1 13509.7 1.93041e-07 0.365772 4.636e-05
343 2 0 39.0949 6.83699 43283.9 43286.2 15713.4 2.05281e-06 0.544005 -8.0696e-05
344 2 3.2245 39.0949 9.11598 43284.2 43286.4 15716 0.000102836 0.365873 8.00529e-05
345 2 1.61225 39.0949 11.395 43284.2 43286.4 15716 0.000191203 0.365772 0.000253069
346 2 2.41837 40.4912 6.83699 43283.9 43286.2 15713.4 -0.000109256 0.544084 -4.43222e-05
347 2 0.806124 40.4912 9.11598 43284.2 43286.4 15716 -2.96522e-05 0.365948 -0.000120443
348 2 4.03062 40.4912 11.395 43284.2 43286.4 15716 0.000212679 0.365827 0.000280943
349 2 0 39.0949 13.674 43283.9 43286.2 15714.9 -1.48412e-06 0.544018 0.000505311
350 2 3.2245 39.0949 15.953 43284.2 43286.4 15716 -0.000459216 0.366201 -0.000116647
351 2 1.61225 39.0949 18.232 43284.2 43286.3 15714.5 -0.000538906 0.366213 -0.000225913
352 2 2.41837 40.4912 13.674 43283.9 43286.2 15714.9 0.000224209 0.543879 0.000300456
353 2 0.806124 40.4912 15.953 43284.2 43286.4 15716 3.15936e-05 0.365916 0.000271657
354 2 4.03062 40.4912 18.232 43284.2 43286.3 15714.5 -0.000545416 0.366166 -0.000324243
355 2 0 39.0949 20.511 43156.6 43158.9 13508.6 1.00002e-05 0.544004 -0.000378527