3074
 Atoms. Timestep: 1
Pt 0 0 0
Pt 3.2245 1.0913e-12 2.27982
Pt 1.61225 1.12871e-12 4.558
Pt 2.41837 1.39625 0
Pt 0.806124 1.39625 2.27982
Pt 4.03062 1.39625 4.558
Pt 1.27341e-13 5.24364e-13 6.83699
Pt 3.2245 1.07658e-12 9.11598
Pt 1.61225 1.03326e-12 11.395
Pt 2.41837 1.39625 6.83699
Pt 0.806124 1.39625 9.11598
Pt 4.03062 1.39625 11.395
Pt 7.52606e-16 -3.70517e-14 13.674
Pt 3.2245 -1.71594e-12 15.953
Pt 1.61225 -2.91853e-12 18.232
Pt 2.41837 1.39625 13.674
Pt 0.806124 1.39625 15.953
Pt 4.03062 1.39625 18.232
Pt 8.93155e-14 -2.75543e-12 20.5109
Pt 3.2245 8.60549e-13 22.7891
Pt 1.61225 5.6048e-13 25.0697
Pt 2.41837 1.39625 20.5109
Pt 0.806124 1.39625 22.7891
Pt 4.03062 1.39625 25.0697
Pt 0 2.7925 0
Pt 3.2245 2.7925 2.27982
Pt 1.61225 2.7925 4.558
Pt 2.41837 4.18874 0
Pt 0.806124 4.18874 2.27982
Pt 4.03062 4.18874 4.558
Pt 8.21093e-14 2.7925 6.83699
Pt 3.2245 2.7925 9.11598
Pt 1.61225 2.7925 11.395
Pt 2.41837 4.18874 6.83699
Pt 0.806124 4.18874 9.11598
Pt 4.03062 4.18874 11.395
Pt 1.33155e-13 2.7925 13.674
Pt 3.2245 2.7925 15.953
Pt 1.61225 2.7925 18.232
Pt 2.41837 4.18874 13.674
Pt 0.806124 4.18874 15.953
Pt 4.03062 4.18874 18.232
Pt -8.90333e-14 2.7925 20.5109
Pt 3.2245 2.7925 22.7891
Pt 1.61225 2.7925 25.0697
Pt 2.41837 4.18874 20.5109
Pt 0.806124 4.18874 22.7891
Pt 4.03062 4.18874 25.0697
Pt 0 5.58499 0
Pt 3.2245 5.58499 2.27982
Pt 1.61225 5.58499 4.558
Pt 2.41837 6.98124 0
Pt 0.806124 6.98124 2.27982
Pt 4.03062 6.98124 4.558
Pt 5.76496e-14 5.58499 6.83699
Pt 3.2245 5.58499 9.11598
Pt 1.61225 5.58499 11.395
Pt 2.41837 6.98124 6.83699
Pt 0.806124 6.98124 9.11598
Pt 4.03062 6.98124 11.395
Pt 4.95967e-14 5.58499 13.674
Pt 3.2245 5.58499 15.953
Pt 1.61225 5.58499 18.232
Pt 2.41837 6.98124 13.674
Pt 0.806124 6.98124 15.953
Pt 4.03062 6.98124 18.232
Pt -5.62573e-14 5.58499 20.5109
Pt 3.2245 5.58499 22.7891
Pt 1.61225 5.58499 25.0697
Pt 2.41837 6.98124 20.5109
Pt 0.806124 6.98124 22.7891
Pt 4.03062 6.98124 25.0697
Pt 0 8.37749 0
Pt 3.2245 8.37749 2.27982
Pt 1.61225 8.37749 4.558
Pt 2.41837 9.77373 0
Pt 0.806124 9.77373 2.27982
Pt 4.03062 9.77373 4.558
Pt 1.31066e-13 8.37749 6.83699
Pt 3.2245 8.37749 9.11598
Pt 1.61225 8.37749 11.395
Pt 2.41837 9.77373 6.83699
Pt 0.806124 9.77373 9.11598
Pt 4.03062 9.77373 11.395
Pt -3.38541e-13 8.37749 13.674
Pt 3.2245 8.37749 15.953
Pt 1.61225 8.37749 18.232
Pt 2.41837 9.77373 13.674
Pt 0.806124 9.77373 15.953
Pt 4.03062 9.77373 18.232
Pt 9.97843e-13 8.37749 20.5109
Pt 3.2245 8.37749 22.7891
Pt 1.61225 8.37749 25.0697
Pt 2.41837 9.77373 20.5109
Pt 0.806124 9.77373 22.7891
Pt 4.03062 9.77373 25.0697
Pt 0 11.17 0
Pt 3.2245 11.17 2.27982
Pt 1.61225 11.17 4.558
Pt 2.41837 12.5662 0
Pt 0.806124 12.5662 2.27982
Pt 4.03062 12.5662 4.558
Pt 2.3995e-13 11.17 6.83699
Pt 3.2245 11.17 9.11598
Pt 1.61225 11.17 11.395
Pt 2.41837 12.5662 6.83699
Pt 0.806124 12.5662 9.11598
Pt 4.03062 12.5662 11.395
Pt -3.69135e-13 11.17 13.674
Pt 3.2245 11.17 15.953
Pt 1.61225 11.17 18.232
Pt 2.41837 12.5662 13.674
Pt 0.806124 12.5662 15.953
Pt 4.03062 12.5662 18.232
Pt 1.20724e-12 11.17 20.5109
Pt 3.2245 11.17 22.7891
Pt 1.61225 11.17 25.0697
Pt 2.41837 12.5662 20.5109
Pt 0.806124 12.5662 22.7891
Pt 4.03062 12.5662 25.0697
Pt 0 13.9625 0
Pt 3.2245 13.9625 2.27982
Pt 1.61225 13.9625 4.558
Pt 2.41837 15.3587 0
Pt 0.806124 15.3587 2.27982
Pt 4.03062 15.3587 4.558
Pt 2.05217e-13 13.9625 6.83699
Pt 3.2245 13.9625 9.11598
Pt 1.61225 13.9625 11.395
Pt 2.41837 15.3587 6.83699
Pt 0.806124 15.3587 9.11598
Pt 4.03062 15.3587 11.395
Pt 1.3618e-12 13.9625 13.674
Pt 3.2245 13.9625 15.953
Pt 1.61225 13.9625 18.232
Pt 2.41837 15.3587 13.674
Pt 0.806124 15.3587 15.953
Pt 4.03062 15.3587 18.232
Pt -1.12138e-12 13.9625 20.5109
Pt 3.2245 13.9625 22.7891
Pt 1.61225 13.9625 25.0697
Pt 2.41837 15.3587 20.5109
Pt 0.806124 15.3587 22.7891
Pt 4.03062 15.3587 25.0697
Pt 0 16.755 0
Pt 3.2245 16.755 2.27982
Pt 1.61225 16.755 4.558
Pt 2.41837 18.1512 0
Pt 0.806124 18.1512 2.27982
Pt 4.03062 18.1512 4.558
Pt 1.87211e-14 16.755 6.83699
Pt 3.2245 16.755 9.11598
Pt 1.61225 16.755 11.395
Pt 2.41837 18.1512 6.83699
Pt 0.806124 18.1512 9.11598
Pt 4.03062 18.1512 11.395
Pt 4.74065e-12 16.755 13.674
Pt 3.2245 16.755 15.953
Pt 1.61225 16.755 18.232
Pt 2.41837 18.1512 13.674
Pt 0.806124 18.1512 15.953
Pt 4.03062 18.1512 18.232
Pt -5.71473e-13 16.755 20.5109
Pt 3.2245 16.755 22.7891
Pt 1.61225 16.755 25.0697
Pt 2.41837 18.1512 20.5109
Pt 0.806124 18.1512 22.7891
Pt 4.03062 18.1512 25.0697
Pt 0 19.5475 0
Pt 3.2245 19.5475 2.27982
Pt 1.61225 19.5475 4.558
Pt 2.41837 20.9437 0
Pt 0.806124 20.9437 2.27982
Pt 4.03062 20.9437 4.558
Pt -1.38348e-13 19.5475 6.83699
Pt 3.2245 19.5475 9.11598
Pt 1.61225 19.5475 11.395
Pt 2.41837 20.9437 6.83699
Pt 0.806124 20.9437 9.11598
Pt 4.03062 20.9437 11.395
Pt 7.1386e-12 19.5475 13.674
Pt 3.2245 19.5475 15.953
Pt 1.61225 19.5475 18.232
Pt 2.41837 20.9437 13.674
Pt 0.806124 20.9437 15.953
Pt 4.03062 20.9437 18.232
Pt 1.43183e-12 19.5475 20.5109
Pt 3.2245 19.5475 22.7891
Pt 1.61225 19.5475 25.0697
Pt 2.41837 20.9437 20.5109
Pt 0.806124 20.9437 22.7891
Pt 4.03062 20.9437 25.0697
Pt 0 22.34 0
Pt 3.2245 22.34 2.27982
Pt 1.61225 22.34 4.558
Pt 2.41837 23.7362 0
Pt 0.806124 23.7362 2.27982
Pt 4.03062 23.7362 4.558
Pt -1.38348e-13 22.34 6.83699
Pt 3.2245 22.34 9.11598
Pt 1.61225 22.34 11.395
Pt 2.41837 23.7362 6.83699
Pt 0.806124 23.7362 9.11598
Pt 4.03062 23.7362 11.395
Pt 7.1386e-12 22.34 13.674
Pt 3.2245 22.34 15.953
Pt 1.61225 22.34 18.232
Pt 2.41837 23.7362 13.674
Pt 0.806124 23.7362 15.953
Pt 4.03062 23.7362 18.232
Pt 1.43178e-12 22.34 20.5109
Pt 3.2245 22.34 22.7891
Pt 1.61225 22.34 25.0697
Pt 2.41837 23.7362 20.5109
Pt 0.806124 23.7362 22.7891
Pt 4.03062 23.7362 25.0697
Pt 0 25.1325 0
Pt 3.2245 25.1325 2.27982
Pt 1.61225 25.1325 4.558
Pt 2.41837 26.5287 0
Pt 0.806124 26.5287 2.27982
Pt 4.03062 26.5287 4.558
Pt 1.86458e-14 25.1325 6.83699
Pt 3.2245 25.1325 9.11598
Pt 1.61225 25.1325 11.395
Pt 2.41837 26.5287 6.83699
Pt 0.806124 26.5287 9.11598
Pt 4.03062 26.5287 11.395
Pt 4.74061e-12 25.1325 13.674
Pt 3.2245 25.1325 15.953
Pt 1.61225 25.1325 18.232
Pt 2.41837 26.5287 13.674
Pt 0.806124 26.5287 15.953
Pt 4.03062 26.5287 18.232
Pt -5.71586e-13 25.1325 20.5109
Pt 3.2245 25.1325 22.7891
Pt 1.61225 25.1325 25.0697
Pt 2.41837 26.5287 20.5109
Pt 0.806124 26.5287 22.7891
Pt 4.03062 26.5287 25.0697
Pt 0 27.925 0
Pt 3.2245 27.925 2.27982
Pt 1.61225 27.925 4.558
Pt 2.41837 29.3212 0
Pt 0.806124 29.3212 2.27982
Pt 4.03062 29.3212 4.558
Pt 2.05142e-13 27.925 6.83699
Pt 3.2245 27.925 9.11598
Pt 1.61225 27.925 11.395
Pt 2.41837 29.3212 6.83699
Pt 0.806124 29.3212 9.11598
Pt 4.03062 29.3212 11.395
Pt 1.36171e-12 27.925 13.674
Pt 3.2245 27.925 15.953
Pt 1.61225 27.925 18.232
Pt 2.41837 29.3212 13.674
Pt 0.806124 29.3212 15.953
Pt 4.03062 29.3212 18.232
Pt -1.12144e-12 27.925 20.5109
Pt 3.2245 27.925 22.7891
Pt 1.61225 27.925 25.0697
Pt 2.41837 29.3212 20.5109
Pt 0.806124 29.3212 22.7891
Pt 4.03062 29.3212 25.0697
Pt 0 30.7174 0
Pt 3.2245 30.7174 2.27982
Pt 1.61225 30.7174 4.558
Pt 2.41837 32.1137 0
Pt 0.806124 32.1137 2.27982
Pt 4.03062 32.1137 4.558
Pt 2.39931e-13 30.7174 6.83699
Pt 3.2245 30.7174 9.11598
Pt 1.61225 30.7174 11.395
Pt 2.41837 32.1137 6.83699
Pt 0.806124 32.1137 9.11598
Pt 4.03062 32.1137 11.395
Pt -3.69266e-13 30.7174 13.674
Pt 3.2245 30.7174 15.953
Pt 1.61225 30.7174 18.232
Pt 2.41837 32.1137 13.674
Pt 0.806124 32.1137 15.953
Pt 4.03062 32.1137 18.232
Pt 1.20711e-12 30.7174 20.5109
Pt 3.2245 30.7174 22.7891
Pt 1.61225 30.7174 25.0697
Pt 2.41837 32.1137 20.5109
Pt 0.806124 32.1137 22.7891
Pt 4.03062 32.1137 25.0697
Pt 0 33.5099 0
Pt 3.2245 33.5099 2.27982
Pt 1.61225 33.5099 4.558
Pt 2.41837 34.9062 0
Pt 0.806124 34.9062 2.27982
Pt 4.03062 34.9062 4.558
Pt 1.30916e-13 33.5099 6.83699
Pt 3.2245 33.5099 9.11598
Pt 1.61225 33.5099 11.395
Pt 2.41837 34.9062 6.83699
Pt 0.806124 34.9062 9.11598
Pt 4.03062 34.9062 11.395
Pt -3.38729e-13 33.5099 13.674
Pt 3.2245 33.5099 15.953
Pt 1.61225 33.5099 18.232
Pt 2.41837 34.9062 13.674
Pt 0.806124 34.9062 15.953
Pt 4.03062 34.9062 18.232
Pt 9.97655e-13 33.5099 20.5109
Pt 3.2245 33.5099 22.7891
Pt 1.61225 33.5099 25.0697
Pt 2.41837 34.9062 20.5109
Pt 0.806124 34.9062 22.7891
Pt 4.03062 34.9062 25.0697
Pt 0 36.3024 0
Pt 3.2245 36.3024 2.27982
Pt 1.61225 36.3024 4.558
Pt 2.41837 37.6987 0
Pt 0.806124 37.6987 2.27982
Pt 4.03062 37.6987 4.558
Pt 5.76308e-14 36.3024 6.83699
Pt 3.2245 36.3024 9.11598
Pt 1.61225 36.3024 11.395
Pt 2.41837 37.6987 6.83699
Pt 0.806124 37.6987 9.11598
Pt 4.03062 37.6987 11.395
Pt 4.96156e-14 36.3024 13.674
Pt 3.2245 36.3024 15.953
Pt 1.61225 36.3024 18.232
Pt 2.41837 37.6987 13.674
Pt 0.806124 37.6987 15.953
Pt 4.03062 37.6987 18.232
Pt -5.61821e-14 36.3024 20.5109
Pt 3.2245 36.3024 22.7891
Pt 1.61225 36.3024 25.0697
Pt 2.41837 37.6987 20.5109
Pt 0.806124 37.6987 22.7891
Pt 4.03062 37.6987 25.0697
Pt 0 39.0949 0
Pt 3.2245 39.0949 2.27982
Pt 1.61225 39.0949 4.558
Pt 2.41837 40.4912 0
Pt 0.806124 40.4912 2.27982
Pt 4.03062 40.4912 4.558
Pt 8.21282e-14 39.0949 6.83699
Pt 3.2245 39.0949 9.11598
Pt 1.61225 39.0949 11.395
Pt 2.41837 40.4912 6.83699
Pt 0.806124 40.4912 9.11598
Pt 4.03062 40.4912 11.395
Pt 1.33098e-13 39.0949 13.674
Pt 3.2245 39.0949 15.953
Pt 1.61225 39.0949 18.232
Pt 2.41837 40.4912 13.674
Pt 0.806124 40.4912 15.953
Pt 4.03062 40.4912 18.232
Pt -8.89769e-14 39.0949 20.5109
Pt 3.2245 39.0949 22.7891
Pt 1.61225 39.0949 25.0697
Pt 2.41837 40.4912 20.5109
Pt 0.806124 40.4912 22.7891
Pt 4.03062 40.4912 25.0697
Pt 0 41.8874 0
Pt 3.2245 41.8874 2.27982
Pt 1.61225 41.8874 4.558
Pt 2.41837 43.2837 0
Pt 0.806124 43.2837 2.27982
Pt 4.03062 43.2837 4.558
Pt 1.27266e-13 41.8874 6.83699
Pt 3.2245 41.8874 9.11598
Pt 1.61225 41.8874 11.395
Pt 2.41837 43.2837 6.83699
Pt 0.806124 43.2837 9.11598
Pt 4.03062 43.2837 11.395
Pt 6.39715e-16 41.8874 13.674
Pt 3.2245 41.8874 15.953
Pt 1.61225 41.8874 18.232
Pt 2.41837 43.2837 13.674
Pt 0.806124 43.2837 15.953
Pt 4.03062 43.2837 18.232
Pt 8.93908e-14 41.8874 20.5109
Pt 3.2245 41.8874 22.7891
Pt 1.61225 41.8874 25.0697
Pt 2.41837 43.2837 20.5109
Pt 0.806124 43.2837 22.7891
Pt 4.03062 43.2837 25.0697
Pt 4.83674 0 0
Pt 8.06124 7.10028e-13 2.27982
Pt 6.44899 1.21629e-12 4.558
Pt 7.25512 1.39625 0
Pt 5.64287 1.39625 2.27982
Pt 8.86736 1.39625 4.558
Pt 4.83674 1.40528e-12 6.83699
Pt 8.06124 -1.61673e-12 9.11598
Pt 6.44899 -1.44156e-12 11.395
Pt 7.25512 1.39625 6.83699
Pt 5.64287 1.39625 9.11598
Pt 8.86736 1.39625 11.395
Pt 4.83674 -1.50897e-12 13.674
Pt 8.06124 3.65592e-12 15.953
Pt 6.44899 2.98593e-12 18.232
Pt 7.25512 1.39625 13.674
Pt 5.64287 1.39625 15.953
Pt 8.86736 1.39625 18.232
Pt 4.83674 2.27416e-12 20.5109
Pt 8.06124 -2.48392e-12 22.7891
Pt 6.44899 -7.5556e-13 25.0697
Pt 7.25512 1.39625 20.5109
Pt 5.64287 1.39625 22.7891
Pt 8.86736 1.39625 25.0697
Pt 4.83674 2.7925 0
Pt 8.06124 2.7925 2.27982
Pt 6.44899 2.7925 4.558
Pt 7.25512 4.18874 0
Pt 5.64287 4.18874 2.27982
Pt 8.86736 4.18874 4.558
Pt 4.83674 2.7925 6.83699
Pt 8.06124 2.7925 9.11598
Pt 6.44899 2.7925 11.395
Pt 7.25512 4.18874 6.83699
Pt 5.64287 4.18874 9.11598
Pt 8.86736 4.18874 11.395
Pt 4.83674 2.7925 13.674
Pt 8.06124 2.7925 15.953
Pt 6.44899 2.7925 18.232
Pt 7.25512 4.18874 13.674
Pt 5.64287 4.18874 15.953
Pt 8.86736 4.18874 18.232
Pt 4.83674 2.7925 20.5109
Pt 8.06124 2.7925 22.7891
Pt 6.44899 2.7925 25.0697
Pt 7.25512 4.18874 20.5109
Pt 5.64287 4.18874 22.7891
Pt 8.86736 4.18874 25.0697
Pt 4.83674 5.58499 0
Pt 8.06124 5.58499 2.27982
Pt 6.44899 5.58499 4.558
Pt 7.25512 6.98124 0
Pt 5.64287 6.98124 2.27982
Pt 8.86736 6.98124 4.558
Pt 4.83674 5.58499 6.83699
Pt 8.06124 5.58499 9.11598
Pt 6.44899 5.58499 11.395
Pt 7.25512 6.98124 6.83699
Pt 5.64287 6.98124 9.11598
Pt 8.86736 6.98124 11.395
Pt 4.83674 5.58499 13.674
Pt 8.06124 5.58499 15.953
Pt 6.44899 5.58499 18.232
Pt 7.25512 6.98124 13.674
Pt 5.64287 6.98124 15.953
Pt 8.86736 6.98124 18.232
Pt 4.83674 5.58499 20.5109
Pt 8.06124 5.58499 22.7891
Pt 6.44899 5.58499 25.0697
Pt 7.25512 6.98124 20.5109
Pt 5.64287 6.98124 22.7891
Pt 8.86736 6.98124 25.0697
Pt 4.83674 8.37749 0
Pt 8.06124 8.37749 2.27982
Pt 6.44899 8.37749 4.558
Pt 7.25512 9.77373 0
Pt 5.64287 9.77373 2.27982
Pt 8.86736 9.77373 4.558
Pt 4.83674 8.37749 6.83699
Pt 8.06124 8.37749 9.11598
Pt 6.44899 8.37749 11.395
Pt 7.25512 9.77373 6.83699
Pt 5.64287 9.77373 9.11598
Pt 8.86736 9.77373 11.395
Pt 4.83674 8.37749 13.674
Pt 8.06124 8.37749 15.953
Pt 6.44899 8.37749 18.232
Pt 7.25512 9.77373 13.674
Pt 5.64287 9.77373 15.953
Pt 8.86736 9.77373 18.232
Pt 4.83674 8.37749 20.5109
Pt 8.06124 8.37749 22.7891
Pt 6.44899 8.37749 25.0697
Pt 7.25512 9.77373 20.5109
Pt 5.64287 9.77373 22.7891
Pt 8.86736 9.77373 25.0697
Pt 4.83674 11.17 0
Pt 8.06124 11.17 2.27982
Pt 6.44899 11.17 4.558
Pt 7.25512 12.5662 0
Pt 5.64287 12.5662 2.27982
Pt 8.86736 12.5662 4.558
Pt 4.83674 11.17 6.83699
Pt 8.06124 11.17 9.11598
Pt 6.44899 11.17 11.395
Pt 7.25512 12.5662 6.83699
Pt 5.64287 12.5662 9.11598
Pt 8.86736 12.5662 11.395
Pt 4.83674 11.17 13.674
Pt 8.06124 11.17 15.953
Pt 6.44899 11.17 18.232
Pt 7.25512 12.5662 13.674
Pt 5.64287 12.5662 15.953
Pt 8.86736 12.5662 18.232
Pt 4.83674 11.17 20.5109
Pt 8.06124 11.17 22.7891
Pt 6.44899 11.17 25.0697
Pt 7.25512 12.5662 20.5109
Pt 5.64287 12.5662 22.7891
Pt 8.86736 12.5662 25.0697
Pt 4.83674 13.9625 0
Pt 8.06124 13.9625 2.27982
Pt 6.44899 13.9625 4.558
Pt 7.25512 15.3587 0
Pt 5.64287 15.3587 2.27982
Pt 8.86736 15.3587 4.558
Pt 4.83674 13.9625 6.83699
Pt 8.06124 13.9625 9.11598
Pt 6.44899 13.9625 11.395
Pt 7.25512 15.3587 6.83699
Pt 5.64287 15.3587 9.11598
Pt 8.86736 15.3587 11.395
Pt 4.83674 13.9625 13.674
Pt 8.06124 13.9625 15.953
Pt 6.44899 13.9625 18.232
Pt 7.25512 15.3587 13.674
Pt 5.64287 15.3587 15.953
Pt 8.86736 15.3587 18.232
Pt 4.83674 13.9625 20.5109
Pt 8.06124 13.9625 22.7891
Pt 6.44899 13.9625 25.0697
Pt 7.25512 15.3587 20.5109
Pt 5.64287 15.3587 22.7891
Pt 8.86736 15.3587 25.0697
Pt 4.83674 16.755 0
Pt 8.06124 16.755 2.27982
Pt 6.44899 16.755 4.558
Pt 7.25512 18.1512 0
Pt 5.64287 18.1512 2.27982
Pt 8.86736 18.1512 4.558
Pt 4.83674 16.755 6.83699
Pt 8.06124 16.755 9.11598
Pt 6.44899 16.755 11.395
Pt 7.25512 18.1512 6.83699
Pt 5.64287 18.1512 9.11598
Pt 8.86736 18.1512 11.395
Pt 4.83674 16.755 13.674
Pt 8.06124 16.755 15.953
Pt 6.44899 16.755 18.232
Pt 7.25512 18.1512 13.674
Pt 5.64287 18.1512 15.953
Pt 8.86736 18.1512 18.232
Pt 4.83674 16.755 20.5109
Pt 8.06124 16.755 22.7891
Pt 6.44899 16.755 25.0697
Pt 7.25512 18.1512 20.5109
Pt 5.64287 18.1512 22.7891
Pt 8.86736 18.1512 25.0697
Pt 4.83674 19.5475 0
Pt 8.06124 19.5475 2.27982
Pt 6.44899 19.5475 4.558
Pt 7.25512 20.9437 0
Pt 5.64287 20.9437 2.27982
Pt 8.86736 20.9437 4.558
Pt 4.83674 19.5475 6.83699
Pt 8.06124 19.5475 9.11598
Pt 6.44899 19.5475 11.395
Pt 7.25512 20.9437 6.83699
Pt 5.64287 20.9437 9.11598
Pt 8.86736 20.9437 11.395
Pt 4.83674 19.5475 13.674
Pt 8.06124 19.5475 15.953
Pt 6.44899 19.5475 18.232
Pt 7.25512 20.9437 13.674
Pt 5.64287 20.9437 15.953
Pt 8.86736 20.9437 18.232
Pt 4.83674 19.5475 20.5109
Pt 8.06124 19.5475 22.7891
Pt 6.44899 19.5475 25.0697
Pt 7.25512 20.9437 20.5109
Pt 5.64287 20.9437 22.7891
Pt 8.86736 20.9437 25.0697
Pt 4.83674 22.34 0
Pt 8.06124 22.34 2.27982
Pt 6.44899 22.34 4.558
Pt 7.25512 23.7362 0
Pt 5.64287 23.7362 2.27982
Pt 8.86736 23.7362 4.558
Pt 4.83674 22.34 6.83699
Pt 8.06124 22.34 9.11598
Pt 6.44899 22.34 11.395
Pt 7.25512 23.7362 6.83699
Pt 5.64287 23.7362 9.11598
Pt 8.86736 23.7362 11.395
Pt 4.83674 22.34 13.674
Pt 8.06124 22.34 15.953
Pt 6.44899 22.34 18.232
Pt 7.25512 23.7362 13.674
Pt 5.64287 23.7362 15.953
Pt 8.86736 23.7362 18.232
Pt 4.83674 22.34 20.5109
Pt 8.06124 22.34 22.7891
Pt 6.44899 22.34 25.0697
Pt 7.25512 23.7362 20.5109
Pt 5.64287 23.7362 22.7891
Pt 8.86736 23.7362 25.0697
Pt 4.83674 25.1325 0
Pt 8.06124 25.1325 2.27982
Pt 6.44899 25.1325 4.558
Pt 7.25512 26.5287 0
Pt 5.64287 26.5287 2.27982
Pt 8.86736 26.5287 4.558
Pt 4.83674 25.1325 6.83699
Pt 8.06124 25.1325 9.11598
Pt 6.44899 25.1325 11.395
Pt 7.25512 26.5287 6.83699
Pt 5.64287 26.5287 9.11598
Pt 8.86736 26.5287 11.395
Pt 4.83674 25.1325 13.674
Pt 8.06124 25.1325 15.953
Pt 6.44899 25.1325 18.232
Pt 7.25512 26.5287 13.674
Pt 5.64287 26.5287 15.953
Pt 8.86736 26.5287 18.232
Pt 4.83674 25.1325 20.5109
Pt 8.06124 25.1325 22.7891
Pt 6.44899 25.1325 25.0697
Pt 7.25512 26.5287 20.5109
Pt 5.64287 26.5287 22.7891
Pt 8.86736 26.5287 25.0697
Pt 4.83674 27.925 0
Pt 8.06124 27.925 2.27982
Pt 6.44899 27.925 4.558
Pt 7.25512 29.3212 0
Pt 5.64287 29.3212 2.27982
Pt 8.86736 29.3212 4.558
Pt 4.83674 27.925 6.83699
Pt 8.06124 27.925 9.11598
Pt 6.44899 27.925 11.395
Pt 7.25512 29.3212 6.83699
Pt 5.64287 29.3212 9.11598
Pt 8.86736 29.3212 11.395
Pt 4.83674 27.925 13.674
Pt 8.06124 27.925 15.953
Pt 6.44899 27.925 18.232
Pt 7.25512 29.3212 13.674
Pt 5.64287 29.3212 15.953
Pt 8.86736 29.3212 18.232
Pt 4.83674 27.925 20.5109
Pt 8.06124 27.925 22.7891
Pt 6.44899 27.925 25.0697
Pt 7.25512 29.3212 20.5109
Pt 5.64287 29.3212 22.7891
Pt 8.86736 29.3212 25.0697
Pt 4.83674 30.7174 0
Pt 8.06124 30.7174 2.27982
Pt 6.44899 30.7174 4.558
Pt 7.25512 32.1137 0
Pt 5.64287 32.1137 2.27982
Pt 8.86736 32.1137 4.558
Pt 4.83674 30.7174 6.83699
Pt 8.06124 30.7174 9.11598
Pt 6.44899 30.7174 11.395
Pt 7.25512 32.1137 6.83699
Pt 5.64287 32.1137 9.11598
Pt 8.86736 32.1137 11.395
Pt 4.83674 30.7174 13.674
Pt 8.06124 30.7174 15.953
Pt 6.44899 30.7174 18.232
Pt 7.25512 32.1137 13.674
Pt 5.64287 32.1137 15.953
Pt 8.86736 32.1137 18.232
Pt 4.83674 30.7174 20.5109
Pt 8.06124 30.7174 22.7891
Pt 6.44899 30.7174 25.0697
Pt 7.25512 32.1137 20.5109
Pt 5.64287 32.1137 22.7891
Pt 8.86736 32.1137 25.0697
Pt 4.83674 33.5099 0
Pt 8.06124 33.5099 2.27982
Pt 6.44899 33.5099 4.558
Pt 7.25512 34.9062 0
Pt 5.64287 34.9062 2.27982
Pt 8.86736 34.9062 4.558
Pt 4.83674 33.5099 6.83699
Pt 8.06124 33.5099 9.11598
Pt 6.44899 33.5099 11.395
Pt 7.25512 34.9062 6.83699
Pt 5.64287 34.9062 9.11598
Pt 8.86736 34.9062 11.395
Pt 4.83674 33.5099 13.674
Pt 8.06124 33.5099 15.953
Pt 6.44899 33.5099 18.232
Pt 7.25512 34.9062 13.674
Pt 5.64287 34.9062 15.953
Pt 8.86736 34.9062 18.232
Pt 4.83674 33.5099 20.5109
Pt 8.06124 33.5099 22.7891
Pt 6.44899 33.5099 25.0697
Pt 7.25512 34.9062 20.5109
Pt 5.64287 34.9062 22.7891
Pt 8.86736 34.9062 25.0697
Pt 4.83674 36.3024 0
Pt 8.06124 36.3024 2.27982
Pt 6.44899 36.3024 4.558
Pt 7.25512 37.6987 0
Pt 5.64287 37.6987 2.27982
Pt 8.86736 37.6987 4.558
Pt 4.83674 36.3024 6.83699
Pt 8.06124 36.3024 9.11598
Pt 6.44899 36.3024 11.395
Pt 7.25512 37.6987 6.83699
Pt 5.64287 37.6987 9.11598
Pt 8.86736 37.6987 11.395
Pt 4.83674 36.3024 13.674
Pt 8.06124 36.3024 15.953
Pt 6.44899 36.3024 18.232
Pt 7.25512 37.6987 13.674
Pt 5.64287 37.6987 15.953
Pt 8.86736 37.6987 18.232
Pt 4.83674 36.3024 20.5109
Pt 8.06124 36.3024 22.7891
Pt 6.44899 36.3024 25.0697
Pt 7.25512 37.6987 20.5109
Pt 5.64287 37.6987 22.7891
Pt 8.86736 37.6987 25.0697
Pt 4.83674 39.0949 0
Pt 8.06124 39.0949 2.27982
Pt 6.44899 39.0949 4.558
Pt 7.25512 40.4912 0
Pt 5.64287 40.4912 2.27982
Pt 8.86736 40.4912 4.558
Pt 4.83674 39.0949 6.83699
Pt 8.06124 39.0949 9.11598
Pt 6.44899 39.0949 11.395
Pt 7.25512 40.4912 6.83699
Pt 5.64287 40.4912 9.11598
Pt 8.86736 40.4912 11.395
Pt 4.83674 39.0949 13.674
Pt 8.06124 39.0949 15.953
Pt 6.44899 39.0949 18.232
Pt 7.25512 40.4912 13.674
Pt 5.64287 40.4912 15.953
Pt 8.86736 40.4912 18.232
Pt 4.83674 39.0949 20.5109
Pt 8.06124 39.0949 22.7891
Pt 6.44899 39.0949 25.0697
Pt 7.25512 40.4912 20.5109
Pt 5.64287 40.4912 22.7891
Pt 8.86736 40.4912 25.0697
Pt 4.83674 41.8874 0
Pt 8.06124 41.8874 2.27982
Pt 6.44899 41.8874 4.558
Pt 7.25512 43.2837 0
Pt 5.64287 43.2837 2.27982
Pt 8.86736 43.2837 4.558
Pt 4.83674 41.8874 6.83699
Pt 8.06124 41.8874 9.11598
Pt 6.44899 41.8874 11.395
Pt 7.25512 43.2837 6.83699
Pt 5.64287 43.2837 9.11598
Pt 8.86736 43.2837 11.395
Pt 4.83674 41.8874 13.674
Pt 8.06124 41.8874 15.953
Pt 6.44899 41.8874 18.232
Pt 7.25512 43.2837 13.674
Pt 5.64287 43.2837 15.953
Pt 8.86736 43.2837 18.232
Pt 4.83674 41.8874 20.5109
Pt 8.06124 41.8874 22.7891
Pt 6.44899 41.8874 25.0697
Pt 7.25512 43.2837 20.5109
Pt 5.64287 43.2837 22.7891
Pt 8.86736 43.2837 25.0697
Pt 9.67349 0 0
Pt 12.898 9.59215e-13 2.27982
Pt 11.2857 9.27493e-13 4.558
Pt 12.0919 1.39625 0
Pt 10.4796 1.39625 2.27982
Pt 13.7041 1.39625 4.558
Pt 9.67349 -1.09055e-12 6.83699
Pt 12.898 -3.46238e-12 9.11598
Pt 11.2857 1.88039e-13 11.395
Pt 12.0919 1.39625 6.83699
Pt 10.4796 1.39625 9.11598
Pt 13.7041 1.39625 11.395
Pt 9.67349 3.77005e-12 13.674
Pt 12.898 -2.90645e-12 15.953
Pt 11.2857 -8.32389e-12 18.232
Pt 12.0919 1.39625 13.674
Pt 10.4796 1.39625 15.953
Pt 13.7041 1.39625 18.232
Pt 9.67349 -7.44361e-12 20.5109
Pt 12.898 -2.09529e-12 22.7891
Pt 11.2857 -9.07613e-12 25.0697
Pt 12.0919 1.39625 20.5109
Pt 10.4796 1.39625 22.7891
Pt 13.7041 1.39625 25.0697
Pt 9.67349 2.7925 0
Pt 12.898 2.7925 2.27982
Pt 11.2857 2.7925 4.558
Pt 12.0919 4.18874 0
Pt 10.4796 4.18874 2.27982
Pt 13.7041 4.18874 4.558
Pt 9.67349 2.7925 6.83699
Pt 12.898 2.7925 9.11598
Pt 11.2857 2.7925 11.395
Pt 12.0919 4.18874 6.83699
Pt 10.4796 4.18874 9.11598
Pt 13.7041 4.18874 11.395
Pt 9.67349 2.7925 13.674
Pt 12.898 2.7925 15.953
Pt 11.2857 2.7925 18.232
Pt 12.0919 4.18874 13.674
Pt 10.4796 4.18874 15.953
Pt 13.7041 4.18874 18.232
Pt 9.67349 2.7925 20.5109
Pt 12.898 2.7925 22.7891
Pt 11.2857 2.7925 25.0697
Pt 12.0919 4.18874 20.5109
Pt 10.4796 4.18874 22.7891
Pt 13.7041 4.18874 25.0697
Pt 9.67349 5.58499 0
Pt 12.898 5.58499 2.27982
Pt 11.2857 5.58499 4.558
Pt 12.0919 6.98124 0
Pt 10.4796 6.98124 2.27982
Pt 13.7041 6.98124 4.558
Pt 9.67349 5.58499 6.83699
Pt 12.898 5.58499 9.11598
Pt 11.2857 5.58499 11.395
Pt 12.0919 6.98124 6.83699
Pt 10.4796 6.98124 9.11598
Pt 13.7041 6.98124 11.395
Pt 9.67349 5.58499 13.674
Pt 12.898 5.58499 15.953
Pt 11.2857 5.58499 18.232
Pt 12.0919 6.98124 13.674
Pt 10.4796 6.98124 15.953
Pt 13.7041 6.98124 18.232
Pt 9.67349 5.58499 20.5109
Pt 12.898 5.58499 22.7891
Pt 11.2857 5.58499 25.0697
Pt 12.0919 6.98124 20.5109
Pt 10.4796 6.98124 22.7891
Pt 13.7041 6.98124 25.0697
Pt 9.67349 8.37749 0
Pt 12.898 8.37749 2.27982
Pt 11.2857 8.37749 4.558
Pt 12.0919 9.77373 0
Pt 10.4796 9.77373 2.27982
Pt 13.7041 9.77373 4.558
Pt 9.67349 8.37749 6.83699
Pt 12.898 8.37749 9.11598
Pt 11.2857 8.37749 11.395
Pt 12.0919 9.77373 6.83699
Pt 10.4796 9.77373 9.11598
Pt 13.7041 9.77373 11.395
Pt 9.67349 8.37749 13.674
Pt 12.898 8.37749 15.953
Pt 11.2857 8.37749 18.232
Pt 12.0919 9.77373 13.674
Pt 10.4796 9.77373 15.953
Pt 13.7041 9.77373 18.232
Pt 9.67349 8.37749 20.5109
Pt 12.898 8.37749 22.7891
Pt 11.2857 8.37749 25.0697
Pt 12.0919 9.77373 20.5109
Pt 10.4796 9.77373 22.7891
Pt 13.7041 9.77373 25.0697
Pt 9.67349 11.17 0
Pt 12.898 11.17 2.27982
Pt 11.2857 11.17 4.558
Pt 12.0919 12.5662 0
Pt 10.4796 12.5662 2.27982
Pt 13.7041 12.5662 4.558
Pt 9.67349 11.17 6.83699
Pt 12.898 11.17 9.11598
Pt 11.2857 11.17 11.395
Pt 12.0919 12.5662 6.83699
Pt 10.4796 12.5662 9.11598
Pt 13.7041 12.5662 11.395
Pt 9.67349 11.17 13.674
Pt 12.898 11.17 15.953
Pt 11.2857 11.17 18.232
Pt 12.0919 12.5662 13.674
Pt 10.4796 12.5662 15.953
Pt 13.7041 12.5662 18.232
Pt 9.67349 11.17 20.5109
Pt 12.898 11.17 22.7891
Pt 11.2857 11.17 25.0697
Pt 12.0919 12.5662 20.5109
Pt 10.4796 12.5662 22.7891
Pt 13.7041 12.5662 25.0697
Pt 9.67349 13.9625 0
Pt 12.898 13.9625 2.27982
Pt 11.2857 13.9625 4.558
Pt 12.0919 15.3587 0
Pt 10.4796 15.3587 2.27982
Pt 13.7041 15.3587 4.558
Pt 9.67349 13.9625 6.83699
Pt 12.898 13.9625 9.11598
Pt 11.2857 13.9625 11.395
Pt 12.0919 15.3587 6.83699
Pt 10.4796 15.3587 9.11598
Pt 13.7041 15.3587 11.395
Pt 9.67349 13.9625 13.674
Pt 12.898 13.9625 15.953
Pt 11.2857 13.9625 18.232
Pt 12.0919 15.3587 13.674
Pt 10.4796 15.3587 15.953
Pt 13.7041 15.3587 18.232
Pt 9.67349 13.9625 20.5109
Pt 12.898 13.9625 22.7891
Pt 11.2857 13.9625 25.0697
Pt 12.0919 15.3587 20.5109
Pt 10.4796 15.3587 22.7891
Pt 13.7041 15.3587 25.0697
Pt 9.67349 16.755 0
Pt 12.898 16.755 2.27982
Pt 11.2857 16.755 4.558
Pt 12.0919 18.1512 0
Pt 10.4796 18.1512 2.27982
Pt 13.7041 18.1512 4.558
Pt 9.67349 16.755 6.83699
Pt 12.898 16.755 9.11598
Pt 11.2857 16.755 11.395
Pt 12.0919 18.1512 6.83699
Pt 10.4796 18.1512 9.11598
Pt 13.7041 18.1512 11.395
Pt 9.67349 16.755 13.674
Pt 12.898 16.755 15.953
Pt 11.2857 16.755 18.232
Pt 12.0919 18.1512 13.674
Pt 10.4796 18.1512 15.953
Pt 13.7041 18.1512 18.232
Pt 9.67349 16.755 20.5109
Pt 12.898 16.755 22.7891
Pt 11.2857 16.755 25.0697
Pt 12.0919 18.1512 20.5109
Pt 10.4796 18.1512 22.7891
Pt 13.7041 18.1512 25.0697
Pt 9.67349 19.5475 0
Pt 12.898 19.5475 2.27982
Pt 11.2857 19.5475 4.558
Pt 12.0919 20.9437 0
Pt 10.4796 20.9437 2.27982
Pt 13.7041 20.9437 4.558
Pt 9.67349 19.5475 6.83699
Pt 12.898 19.5475 9.11598
Pt 11.2857 19.5475 11.395
Pt 12.0919 20.9437 6.83699
Pt 10.4796 20.9437 9.11598
Pt 13.7041 20.9437 11.395
Pt 9.67349 19.5475 13.674
Pt 12.898 19.5475 15.953
Pt 11.2857 19.5475 18.232
Pt 12.0919 20.9437 13.674
Pt 10.4796 20.9437 15.953
Pt 13.7041 20.9437 18.232
Pt 9.67349 19.5475 20.5109
Pt 12.898 19.5475 22.7891
Pt 11.2857 19.5475 25.0697
Pt 12.0919 20.9437 20.5109
Pt 10.4796 20.9437 22.7891
Pt 13.7041 20.9437 25.0697
Pt 9.67349 22.34 0
Pt 12.898 22.34 2.27982
Pt 11.2857 22.34 4.558
Pt 12.0919 23.7362 0
Pt 10.4796 23.7362 2.27982
Pt 13.7041 23.7362 4.558
Pt 9.67349 22.34 6.83699
Pt 12.898 22.34 9.11598
Pt 11.2857 22.34 11.395
Pt 12.0919 23.7362 6.83699
Pt 10.4796 23.7362 9.11598
Pt 13.7041 23.7362 11.395
Pt 9.67349 22.34 13.674
Pt 12.898 22.34 15.953
Pt 11.2857 22.34 18.232
Pt 12.0919 23.7362 13.674
Pt 10.4796 23.7362 15.953
Pt 13.7041 23.7362 18.232
Pt 9.67349 22.34 20.5109
Pt 12.898 22.34 22.7891
Pt 11.2857 22.34 25.0697
Pt 12.0919 23.7362 20.5109
Pt 10.4796 23.7362 22.7891
Pt 13.7041 23.7362 25.0697
Pt 9.67349 25.1325 0
Pt 12.898 25.1325 2.27982
Pt 11.2857 25.1325 4.558
Pt 12.0919 26.5287 0
Pt 10.4796 26.5287 2.27982
Pt 13.7041 26.5287 4.558
Pt 9.67349 25.1325 6.83699
Pt 12.898 25.1325 9.11598
Pt 11.2857 25.1325 11.395
Pt 12.0919 26.5287 6.83699
Pt 10.4796 26.5287 9.11598
Pt 13.7041 26.5287 11.395
Pt 9.67349 25.1325 13.674
Pt 12.898 25.1325 15.953
Pt 11.2857 25.1325 18.232
Pt 12.0919 26.5287 13.674
Pt 10.4796 26.5287 15.953
Pt 13.7041 26.5287 18.232
Pt 9.67349 25.1325 20.5109
Pt 12.898 25.1325 22.7891
Pt 11.2857 25.1325 25.0697
Pt 12.0919 26.5287 20.5109
Pt 10.4796 26.5287 22.7891
Pt 13.7041 26.5287 25.0697
Pt 9.67349 27.925 0
Pt 12.898 27.925 2.27982
Pt 11.2857 27.925 4.558
Pt 12.0919 29.3212 0
Pt 10.4796 29.3212 2.27982
Pt 13.7041 29.3212 4.558
Pt 9.67349 27.925 6.83699
Pt 12.898 27.925 9.11598
Pt 11.2857 27.925 11.395
Pt 12.0919 29.3212 6.83699
Pt 10.4796 29.3212 9.11598
Pt 13.7041 29.3212 11.395
Pt 9.67349 27.925 13.674
Pt 12.898 27.925 15.953
Pt 11.2857 27.925 18.232
Pt 12.0919 29.3212 13.674
Pt 10.4796 29.3212 15.953
Pt 13.7041 29.3212 18.232
Pt 9.67349 27.925 20.5109
Pt 12.898 27.925 22.7891
Pt 11.2857 27.925 25.0697
Pt 12.0919 29.3212 20.5109
Pt 10.4796 29.3212 22.7891
Pt 13.7041 29.3212 25.0697
Pt 9.67349 30.7174 0
Pt 12.898 30.7174 2.27982
Pt 11.2857 30.7174 4.558
Pt 12.0919 32.1137 0
Pt 10.4796 32.1137 2.27982
Pt 13.7041 32.1137 4.558
Pt 9.67349 30.7174 6.83699
Pt 12.898 30.7174 9.11598
Pt 11.2857 30.7174 11.395
Pt 12.0919 32.1137 6.83699
Pt 10.4796 32.1137 9.11598
Pt 13.7041 32.1137 11.395
Pt 9.67349 30.7174 13.674
Pt 12.898 30.7174 15.953
Pt 11.2857 30.7174 18.232
Pt 12.0919 32.1137 13.674
Pt 10.4796 32.1137 15.953
Pt 13.7041 32.1137 18.232
Pt 9.67349 30.7174 20.5109
Pt 12.898 30.7174 22.7891
Pt 11.2857 30.7174 25.0697
Pt 12.0919 32.1137 20.5109
Pt 10.4796 32.1137 22.7891
Pt 13.7041 32.1137 25.0697
Pt 9.67349 33.5099 0
Pt 12.898 33.5099 2.27982
Pt 11.2857 33.5099 4.558
Pt 12.0919 34.9062 0
Pt 10.4796 34.9062 2.27982
Pt 13.7041 34.9062 4.558
Pt 9.67349 33.5099 6.83699
Pt 12.898 33.5099 9.11598
Pt 11.2857 33.5099 11.395
Pt 12.0919 34.9062 6.83699
Pt 10.4796 34.9062 9.11598
Pt 13.7041 34.9062 11.395
Pt 9.67349 33.5099 13.674
Pt 12.898 33.5099 15.953
Pt 11.2857 33.5099 18.232
Pt 12.0919 34.9062 13.674
Pt 10.4796 34.9062 15.953
Pt 13.7041 34.9062 18.232
Pt 9.67349 33.5099 20.5109
Pt 12.898 33.5099 22.7891
Pt 11.2857 33.5099 25.0697
Pt 12.0919 34.9062 20.5109
Pt 10.4796 34.9062 22.7891
Pt 13.7041 34.9062 25.0697
Pt 9.67349 36.3024 0
Pt 12.898 36.3024 2.27982
Pt 11.2857 36.3024 4.558
Pt 12.0919 37.6987 0
Pt 10.4796 37.6987 2.27982
Pt 13.7041 37.6987 4.558
Pt 9.67349 36.3024 6.83699
Pt 12.898 36.3024 9.11598
Pt 11.2857 36.3024 11.395
Pt 12.0919 37.6987 6.83699
Pt 10.4796 37.6987 9.11598
Pt 13.7041 37.6987 11.395
Pt 9.67349 36.3024 13.674
Pt 12.898 36.3024 15.953
Pt 11.2857 36.3024 18.232
Pt 12.0919 37.6987 13.674
Pt 10.4796 37.6987 15.953
Pt 13.7041 37.6987 18.232
Pt 9.67349 36.3024 20.5109
Pt 12.898 36.3024 22.7891
Pt 11.2857 36.3024 25.0697
Pt 12.0919 37.6987 20.5109
Pt 10.4796 37.6987 22.7891
Pt 13.7041 37.6987 25.0697
Pt 9.67349 39.0949 0
Pt 12.898 39.0949 2.27982
Pt 11.2857 39.0949 4.558
Pt 12.0919 40.4912 0
Pt 10.4796 40.4912 2.27982
Pt 13.7041 40.4912 4.558
Pt 9.67349 39.0949 6.83699
Pt 12.898 39.0949 9.11598
Pt 11.2857 39.0949 11.395
Pt 12.0919 40.4912 6.83699
Pt 10.4796 40.4912 9.11598
Pt 13.7041 40.4912 11.395
Pt 9.67349 39.0949 13.674
Pt 12.898 39.0949 15.953
Pt 11.2857 39.0949 18.232
Pt 12.0919 40.4912 13.674
Pt 10.4796 40.4912 15.953
Pt 13.7041 40.4912 18.232
Pt 9.67349 39.0949 20.5109
Pt 12.898 39.0949 22.7891
Pt 11.2857 39.0949 25.0697
Pt 12.0919 40.4912 20.5109
Pt 10.4796 40.4912 22.7891
Pt 13.7041 40.4912 25.0697
Pt 9.67349 41.8874 0
Pt 12.898 41.8874 2.27982
Pt 11.2857 41.8874 4.558
Pt 12.0919 43.2837 0
Pt 10.4796 43.2837 2.27982
Pt 13.7041 43.2837 4.558
Pt 9.67349 41.8874 6.83699
Pt 12.898 41.8874 9.11598
Pt 11.2857 41.8874 11.395
Pt 12.0919 43.2837 6.83699
Pt 10.4796 43.2837 9.11598
Pt 13.7041 43.2837 11.395
Pt 9.67349 41.8874 13.674
Pt 12.898 41.8874 15.953
Pt 11.2857 41.8874 18.232
Pt 12.0919 43.2837 13.674
Pt 10.4796 43.2837 15.953
Pt 13.7041 43.2837 18.232
Pt 9.67349 41.8874 20.5109
Pt 12.898 41.8874 22.7891
Pt 11.2857 41.8874 25.0697
Pt 12.0919 43.2837 20.5109
Pt 10.4796 43.2837 22.7891
Pt 13.7041 43.2837 25.0697
Pt 14.5102 0 0
Pt 17.7347 4.53464e-13 2.27982
Pt 16.1225 -1.22167e-13 4.558
Pt 16.9286 1.39625 0