       N       E                     dE             d eps       ncg     rms          rms(c)
DAV:   1     0.427015113938E+04    0.42702E+04   -0.26640E+05  3920   0.127E+03
DAV:   2    -0.573142117065E+02   -0.43275E+04   -0.39992E+04  4634   0.276E+02
DAV:   3    -0.390758247443E+03   -0.33344E+03   -0.30016E+03  4620   0.698E+01
DAV:   4    -0.408091354618E+03   -0.17333E+02   -0.16137E+02  5250   0.145E+01
DAV:   5    -0.408534940259E+03   -0.44359E+00   -0.44041E+00  4830   0.239E+00    0.827E+01
RMM:   6    -0.409826611075E+03   -0.12917E+01   -0.85217E+01  3937   0.143E+01    0.701E+01
RMM:   7    -0.452251979715E+03   -0.42425E+02   -0.16102E+02  3924   0.128E+01    0.661E+01
RMM:   8    -0.637303775050E+03   -0.18505E+03   -0.21703E+02  4018   0.137E+01    0.106E+02
RMM:   9    -0.412892760062E+03    0.22441E+03   -0.81252E+01  3925   0.984E+00    0.401E+01
RMM:  10    -0.391850502408E+03    0.21042E+02   -0.37273E+01  3932   0.756E+00    0.321E+01
RMM:  11    -0.386950892376E+03    0.48996E+01   -0.17590E+01  3936   0.499E+00    0.290E+01
RMM:  12    -0.381041474012E+03    0.59094E+01   -0.39166E+00  3939   0.248E+00    0.147E+01
RMM:  13    -0.380448097423E+03    0.59338E+00   -0.22394E+00  3940   0.185E+00    0.114E+01
RMM:  14    -0.379739492270E+03    0.70861E+00   -0.93017E-01  3941   0.121E+00    0.736E+00
RMM:  15    -0.379382559641E+03    0.35693E+00   -0.34616E-01  3943   0.757E-01    0.409E+00
RMM:  16    -0.379461368222E+03   -0.78809E-01   -0.27095E-01  3942   0.685E-01    0.588E+00
RMM:  17    -0.379412403025E+03    0.48965E-01   -0.16646E-01  3946   0.544E-01    0.531E+00
RMM:  18    -0.379295742926E+03    0.11666E+00   -0.98518E-02  3942   0.411E-01    0.332E+00
RMM:  19    -0.379235335951E+03    0.60407E-01   -0.48142E-02  3942   0.277E-01    0.182E+00
RMM:  20    -0.379232127681E+03    0.32083E-02   -0.17076E-02  3956   0.159E-01    0.141E+00
RMM:  21    -0.379218901843E+03    0.13226E-01   -0.45519E-03  3944   0.855E-02    0.832E-01
RMM:  22    -0.379214589229E+03    0.43126E-02   -0.16265E-03  3942   0.515E-02    0.550E-01
RMM:  23    -0.379213240884E+03    0.13483E-02   -0.18070E-03  3942   0.532E-02    0.351E-01
RMM:  24    -0.379214112275E+03   -0.87139E-03   -0.12772E-03  3944   0.442E-02    0.403E-01
RMM:  25    -0.379213885578E+03    0.22670E-03   -0.59343E-04  3946   0.306E-02    0.288E-01
RMM:  26    -0.379213648088E+03    0.23749E-03   -0.30565E-04  3943   0.218E-02    0.124E-01
RMM:  27    -0.379213904811E+03   -0.25672E-03   -0.16000E-04  3945   0.155E-02    0.815E-02
RMM:  28    -0.379214102301E+03   -0.19749E-03   -0.53271E-05  3950   0.868E-03    0.712E-02
RMM:  29    -0.379214522022E+03   -0.41972E-03   -0.85337E-05  3935   0.106E-02    0.531E-02
RMM:  30    -0.379214716677E+03   -0.19466E-03   -0.34562E-05  3916   0.668E-03    0.280E-02
RMM:  31    -0.379214944971E+03   -0.22829E-03   -0.29070E-05  3920   0.621E-03    0.337E-02
RMM:  32    -0.379215061148E+03   -0.11618E-03   -0.11111E-05  3580   0.358E-03    0.239E-02
RMM:  33    -0.379215315637E+03   -0.25449E-03   -0.26566E-05  3844   0.526E-03    0.387E-02
RMM:  34    -0.379215463247E+03   -0.14761E-03   -0.17241E-05  3607   0.386E-03    0.273E-02
RMM:  35    -0.379215539857E+03   -0.76610E-04   -0.68511E-06  3016   0.237E-03    0.166E-02
RMM:  36    -0.379215595929E+03   -0.56072E-04   -0.32915E-06  2631   0.177E-03    0.125E-02
RMM:  37    -0.379215640222E+03   -0.44293E-04   -0.18144E-06  2381   0.128E-03    0.642E-03
RMM:  38    -0.379215692837E+03   -0.52615E-04   -0.27941E-06  2622   0.136E-03    0.600E-03
RMM:  39    -0.379215709458E+03   -0.16621E-04   -0.66046E-07  2016   0.779E-04    0.309E-03
RMM:  40    -0.379215729093E+03   -0.19635E-04   -0.79895E-07  2209   0.782E-04    0.494E-03
RMM:  41    -0.379215731980E+03   -0.28872E-05   -0.18828E-07  1234   0.464E-04    0.296E-03
RMM:  42    -0.379215743295E+03   -0.11315E-04   -0.29661E-07  1560   0.543E-04    0.179E-03
RMM:  43    -0.379215752466E+03   -0.91704E-05   -0.56651E-07  2133   0.666E-04    0.790E-03
RMM:  44    -0.379215753667E+03   -0.12011E-05   -0.15641E-07   978   0.367E-04    0.790E-03
RMM:  45    -0.379215753857E+03   -0.18992E-06   -0.40240E-08   619   0.307E-04
   1 F= -.41343266E+03 E0= -.41307962E+03  d E =-.413433E+03
       N       E                     dE             d eps       ncg     rms          rms(c)
DAV:   1    -0.379216566037E+03   -0.81237E-03   -0.52209E-01  3962   0.126E+00    0.278E-01
RMM:   2    -0.379220092934E+03   -0.35269E-02   -0.15322E-02  3946   0.158E-01    0.555E-01
RMM:   3    -0.379225602119E+03   -0.55092E-02   -0.37658E-03  3955   0.701E-02    0.103E+00
RMM:   4    -0.379216912932E+03    0.86892E-02   -0.12410E-03  3948   0.429E-02    0.207E-01
RMM:   5    -0.379216898517E+03    0.14415E-04   -0.41131E-04  3943   0.256E-02    0.176E-01
RMM:   6    -0.379217026017E+03   -0.12750E-03   -0.29530E-04  3945   0.217E-02    0.216E-01
RMM:   7    -0.379216820381E+03    0.20564E-03   -0.16303E-04  3945   0.167E-02    0.111E-01
RMM:   8    -0.379216768674E+03    0.51707E-04   -0.77015E-05  3942   0.112E-02    0.502E-02
RMM:   9    -0.379216760863E+03    0.78114E-05   -0.22713E-05  3928   0.627E-03    0.331E-02
RMM:  10    -0.379216755260E+03    0.56033E-05   -0.75204E-06  3841   0.366E-03    0.189E-02
RMM:  11    -0.379216754015E+03    0.12447E-05   -0.14191E-06  2138   0.164E-03    0.103E-02
RMM:  12    -0.379216755035E+03   -0.10199E-05   -0.10161E-06  2113   0.140E-03    0.113E-02
RMM:  13    -0.379216755113E+03   -0.78668E-07   -0.54243E-07  2077   0.110E-03
   2 F= -.41343448E+03 E0= -.41308152E+03  d E =-.182233E-02
       N       E                     dE             d eps       ncg     rms          rms(c)
DAV:   1    -0.379217062224E+03   -0.30719E-03   -0.13148E-02  4032   0.164E-01    0.182E-02
RMM:   2    -0.379217123250E+03   -0.61025E-04   -0.23886E-04  3957   0.247E-02    0.685E-02
RMM:   3    -0.379217090695E+03    0.32554E-04   -0.21456E-05  3986   0.599E-03    0.334E-02
RMM:   4    -0.379217083782E+03    0.69131E-05   -0.58153E-06  3343   0.321E-03    0.165E-02
RMM:   5    -0.379217084513E+03   -0.73088E-06   -0.30292E-06  2415   0.241E-03
   3 F= -.41343442E+03 E0= -.41308147E+03  d E =0.604379E-04
       N       E                     dE             d eps       ncg     rms          rms(c)
DAV:   1    -0.379218756141E+03   -0.16724E-02   -0.71048E-01  3948   0.146E+00    0.275E-01
RMM:   2    -0.379225085924E+03   -0.63298E-02   -0.25955E-02  3948   0.202E-01    0.733E-01
RMM:   3    -0.379227948112E+03   -0.28622E-02   -0.35380E-03  3963   0.680E-02    0.967E-01
RMM:   4    -0.379220197641E+03    0.77505E-02   -0.20184E-03  3939   0.541E-02    0.240E-01
RMM:   5    -0.379219954105E+03    0.24354E-03   -0.58649E-04  3943   0.307E-02    0.187E-01
RMM:   6    -0.379219937547E+03    0.16559E-04   -0.23298E-04  3943   0.198E-02    0.168E-01
RMM:   7    -0.379219836377E+03    0.10117E-03   -0.11577E-04  3944   0.143E-02    0.101E-01
RMM:   8    -0.379219823109E+03    0.13267E-04   -0.97969E-05  3943   0.127E-02    0.713E-02
RMM:   9    -0.379219793840E+03    0.29270E-04   -0.37140E-05  3929   0.808E-03    0.353E-02
RMM:  10    -0.379219785966E+03    0.78735E-05   -0.81767E-06  3882   0.381E-03    0.168E-02
RMM:  11    -0.379219784965E+03    0.10015E-05   -0.13223E-06  2127   0.159E-03    0.955E-03
RMM:  12    -0.379219785712E+03   -0.74782E-06   -0.11827E-06  2110   0.150E-03
   4 F= -.41343863E+03 E0= -.41308572E+03  d E =-.421251E-02
       N       E                     dE             d eps       ncg     rms          rms(c)
DAV:   1    -0.379188248359E+03    0.31537E-01   -0.19689E+01  3920   0.715E+00    0.183E+00
RMM:   2    -0.379524872653E+03   -0.33662E+00   -0.67944E-01  3945   0.111E+00    0.633E+00
RMM:   3    -0.379271918556E+03    0.25295E+00   -0.35329E-02  3953   0.248E-01    0.312E+00
RMM:   4    -0.379314821824E+03   -0.42903E-01   -0.19299E-02  3952   0.176E-01    0.357E+00
RMM:   5    -0.379283069953E+03    0.31752E-01   -0.38195E-02  3939   0.243E-01    0.295E+00
RMM:   6    -0.379246362522E+03    0.36707E-01   -0.24483E-02  3943   0.196E-01    0.173E+00
RMM:   7    -0.379235486115E+03    0.10876E-01   -0.12324E-02  3939   0.137E-01    0.111E+00
RMM:   8    -0.379229691949E+03    0.57942E-02   -0.59185E-03  3938   0.974E-02    0.491E-01
RMM:   9    -0.379228251846E+03    0.14401E-02   -0.13463E-03  3941   0.484E-02    0.246E-01
RMM:  10    -0.379228009805E+03    0.24204E-03   -0.29375E-04  3946   0.216E-02    0.164E-01
RMM:  11    -0.379228073440E+03   -0.63635E-04   -0.33778E-04  3937   0.231E-02    0.176E-01
RMM:  12    -0.379228046354E+03    0.27086E-04   -0.27869E-04  3944   0.214E-02    0.155E-01
RMM:  13    -0.379227936544E+03    0.10981E-03   -0.11314E-04  3935   0.136E-02    0.717E-02
RMM:  14    -0.379227918024E+03    0.18520E-04   -0.36203E-05  3929   0.775E-03    0.374E-02
RMM:  15    -0.379227919020E+03   -0.99689E-06   -0.13396E-05  3917   0.476E-03    0.148E-02
RMM:  16    -0.379227927108E+03   -0.80873E-05   -0.32139E-06  2507   0.243E-03    0.113E-02
RMM:  17    -0.379227940468E+03   -0.13360E-04   -0.15304E-06  2214   0.171E-03    0.114E-02
RMM:  18    -0.379227950808E+03   -0.10340E-04   -0.82045E-07  2174   0.123E-03    0.835E-03
RMM:  19    -0.379227958568E+03   -0.77603E-05   -0.46574E-07  2140   0.854E-04    0.466E-03
RMM:  20    -0.379227967453E+03   -0.88845E-05   -0.32712E-07  2026   0.650E-04    0.277E-03
RMM:  21    -0.379227978473E+03   -0.11020E-04   -0.36709E-07  1929   0.615E-04    0.173E-03
RMM:  22    -0.379227987129E+03   -0.86560E-05   -0.29649E-07  1583   0.532E-04    0.146E-03
RMM:  23    -0.379227999206E+03   -0.12077E-04   -0.57914E-07  1937   0.661E-04    0.177E-03
RMM:  24    -0.379228006342E+03   -0.71364E-05   -0.38110E-07  1459   0.530E-04    0.145E-03
RMM:  25    -0.379228011637E+03   -0.52949E-05   -0.36299E-07  1629   0.515E-04    0.111E-03
RMM:  26    -0.379228015257E+03   -0.36202E-05   -0.23417E-07  1239   0.427E-04    0.807E-04
RMM:  27    -0.379228017807E+03   -0.25498E-05   -0.14021E-07   975   0.385E-04    0.683E-04
RMM:  28    -0.379228019495E+03   -0.16879E-05   -0.94866E-08   887   0.368E-04    0.498E-04
RMM:  29    -0.379228020345E+03   -0.85020E-06   -0.34026E-08   582   0.334E-04
   5 F= -.41347006E+03 E0= -.41311877E+03  d E =-.314277E-01
       N       E                     dE             d eps       ncg     rms          rms(c)
DAV:   1    -0.379227831343E+03    0.18815E-03   -0.52387E-01  3976   0.124E+00    0.283E-01
RMM:   2    -0.379230347896E+03   -0.25166E-02   -0.18231E-02  3943   0.171E-01    0.421E-01
RMM:   3    -0.379229901944E+03    0.44595E-03   -0.26408E-03  3949   0.625E-02    0.470E-01
RMM:   4    -0.379228600562E+03    0.13014E-02   -0.42785E-04  3967   0.253E-02    0.229E-01
RMM:   5    -0.379228730614E+03   -0.13005E-03   -0.43848E-04  3941   0.253E-02    0.250E-01
RMM:   6    -0.379228637707E+03    0.92907E-04   -0.32328E-04  3942   0.224E-02    0.236E-01
RMM:   7    -0.379228394670E+03    0.24304E-03   -0.20989E-04  3941   0.188E-02    0.118E-01
RMM:   8    -0.379228338978E+03    0.55692E-04   -0.87980E-05  3940   0.120E-02    0.603E-02
RMM:   9    -0.379228322248E+03    0.16730E-04   -0.28422E-05  3930   0.703E-03    0.385E-02
RMM:  10    -0.379228313867E+03    0.83808E-05   -0.84814E-06  3886   0.382E-03    0.180E-02
RMM:  11    -0.379228312622E+03    0.12455E-05   -0.15064E-06  2132   0.168E-03    0.100E-02
RMM:  12    -0.379228313189E+03   -0.56722E-06   -0.95684E-07  2091   0.135E-03
   6 F= -.41347096E+03 E0= -.41311978E+03  d E =-.894435E-03
       N       E                     dE             d eps       ncg     rms          rms(c)
DAV:   1    -0.379229446852E+03   -0.11342E-02   -0.25047E-02  4032   0.240E-01    0.853E-02
RMM:   2    -0.379229700702E+03   -0.25385E-03   -0.85802E-04  3947   0.403E-02    0.210E-01
RMM:   3    -0.379229544498E+03    0.15620E-03   -0.38703E-05  3981   0.874E-03    0.138E-01
RMM:   4    -0.379229750966E+03   -0.20647E-03   -0.47726E-05  3928   0.791E-03    0.202E-01
RMM:   5    -0.379229662348E+03    0.88617E-04   -0.11102E-04  3940   0.128E-02    0.184E-01
RMM:   6    -0.379229535996E+03    0.12635E-03   -0.74195E-05  3931   0.107E-02    0.972E-02
RMM:   7    -0.379229493503E+03    0.42493E-04   -0.39366E-05  3923   0.779E-03    0.463E-02
RMM:   8    -0.379229489742E+03    0.37607E-05   -0.14158E-05  3913   0.483E-03    0.286E-02
RMM:   9    -0.379229485856E+03    0.38861E-05   -0.37694E-06  2652   0.265E-03    0.137E-02
RMM:  10    -0.379229485155E+03    0.70131E-06   -0.83827E-07  2113   0.130E-03
   7 F= -.41347233E+03 E0= -.41312115E+03  d E =-.137220E-02
       N       E                     dE             d eps       ncg     rms          rms(c)
DAV:   1    -0.379226420075E+03    0.30658E-02   -0.73720E-01  3920   0.145E+00    0.282E-01
RMM:   2    -0.379231198244E+03   -0.47782E-02   -0.26118E-02  3946   0.203E-01    0.577E-01
RMM:   3    -0.379238553054E+03   -0.73548E-02   -0.40548E-03  3960   0.717E-02    0.113E+00
RMM:   4    -0.379227688774E+03    0.10864E-01   -0.19453E-03  3939   0.534E-02    0.199E-01
RMM:   5    -0.379227580015E+03    0.10876E-03   -0.38818E-04  3946   0.252E-02    0.150E-01
RMM:   6    -0.379227730853E+03   -0.15084E-03   -0.26859E-04  3943   0.207E-02    0.210E-01
RMM:   7    -0.379227556063E+03    0.17479E-03   -0.19452E-04  3944   0.181E-02    0.108E-01
RMM:   8    -0.379227519411E+03    0.36652E-04   -0.10330E-04  3938   0.131E-02    0.636E-02
RMM:   9    -0.379227499618E+03    0.19793E-04   -0.34720E-05  3929   0.787E-03    0.407E-02
RMM:  10    -0.379227489790E+03    0.98280E-05   -0.92368E-06  3903   0.399E-03    0.184E-02
RMM:  11    -0.379227487897E+03    0.18925E-05   -0.19816E-06  2156   0.192E-03    0.935E-03
RMM:  12    -0.379227488561E+03   -0.66393E-06   -0.10918E-06  2104   0.146E-03
   8 F= -.41347386E+03 E0= -.41312273E+03  d E =-.153265E-02
       N       E                     dE             d eps       ncg     rms          rms(c)
DAV:   1    -0.379122045156E+03    0.10544E+00   -0.49620E+01  3920   0.994E+00    0.145E+00
RMM:   2    -0.379465083244E+03   -0.34304E+00   -0.10182E+00  3956   0.158E+00    0.559E+00
RMM:   3    -0.379219963934E+03    0.24512E+00   -0.77517E-02  3979   0.368E-01    0.194E+00
RMM:   4    -0.379220487186E+03   -0.52325E-03   -0.26697E-02  3949   0.212E-01    0.182E+00
RMM:   5    -0.379218903197E+03    0.15840E-02   -0.24040E-02  3943   0.196E-01    0.209E+00
RMM:   6    -0.379203457522E+03    0.15446E-01   -0.16247E-02  3944   0.163E-01    0.120E+00
RMM:   7    -0.379200924915E+03    0.25326E-02   -0.11948E-02  3941   0.139E-01    0.940E-01
RMM:   8    -0.379197906038E+03    0.30189E-02   -0.57194E-03  3944   0.978E-02    0.671E-01
RMM:   9    -0.379195080987E+03    0.28251E-02   -0.21613E-03  3942   0.602E-02    0.300E-01
RMM:  10    -0.379194598333E+03    0.48265E-03   -0.50353E-04  3944   0.289E-02    0.184E-01
RMM:  11    -0.379194452938E+03    0.14539E-03   -0.29063E-04  3939   0.210E-02    0.170E-01
RMM:  12    -0.379194298254E+03    0.15468E-03   -0.17200E-04  3940   0.162E-02    0.868E-02
RMM:  13    -0.379194277047E+03    0.21207E-04   -0.70304E-05  3931   0.105E-02    0.647E-02
RMM:  14    -0.379194256453E+03    0.20594E-04   -0.36916E-05  3935   0.788E-03    0.395E-02
RMM:  15    -0.379194249917E+03    0.65366E-05   -0.15192E-05  3926   0.514E-03    0.189E-02
RMM:  16    -0.379194248748E+03    0.11692E-05   -0.38545E-06  2719   0.270E-03    0.120E-02
RMM:  17    -0.379194249273E+03   -0.52495E-06   -0.13086E-06  2167   0.169E-03
   9 F= -.41352327E+03 E0= -.41317533E+03  d E =-.494049E-01
       N       E                     dE             d eps       ncg     rms          rms(c)
DAV:   1    -0.379192873237E+03    0.13755E-02   -0.52284E-01  3920   0.123E+00    0.266E-01
RMM:   2    -0.379195143232E+03   -0.22700E-02   -0.17359E-02  3943   0.167E-01    0.391E-01
RMM:   3    -0.379194495745E+03    0.64749E-03   -0.22796E-03  3947   0.583E-02    0.403E-01
RMM:   4    -0.379193814050E+03    0.68170E-03   -0.43788E-04  3968   0.250E-02    0.258E-01
RMM:   5    -0.379193707682E+03    0.10637E-03   -0.43630E-04  3941   0.250E-02    0.233E-01
RMM:   6    -0.379193631173E+03    0.76509E-04   -0.27940E-04  3943   0.208E-02    0.216E-01
RMM:   7    -0.379193420376E+03    0.21080E-03   -0.18202E-04  3942   0.176E-02    0.966E-02
RMM:   8    -0.379193387442E+03    0.32934E-04   -0.78319E-05  3940   0.114E-02    0.554E-02
RMM:   9    -0.379193374833E+03    0.12609E-04   -0.23459E-05  3927   0.641E-03    0.369E-02
RMM:  10    -0.379193367302E+03    0.75307E-05   -0.75587E-06  3849   0.362E-03    0.161E-02
RMM:  11    -0.379193366259E+03    0.10433E-05   -0.14316E-06  2102   0.166E-03    0.823E-03
RMM:  12    -0.379193367147E+03   -0.88790E-06   -0.77589E-07  2089   0.124E-03
  10 F= -.41352326E+03 E0= -.41317544E+03  d E =0.458430E-05
       N       E                     dE             d eps       ncg     rms          rms(c)
DAV:   1    -0.379193507357E+03   -0.14110E-03   -0.96677E-03  4032   0.160E-01    0.443E-02
RMM:   2    -0.379193615624E+03   -0.10827E-03   -0.31225E-04  3949   0.240E-02    0.120E-01
RMM:   3    -0.379193539939E+03    0.75685E-04   -0.16109E-05  3933   0.541E-03    0.644E-02
RMM:   4    -0.379193567301E+03   -0.27362E-04   -0.11080E-05  3882   0.412E-03    0.795E-02
RMM:   5    -0.379193567418E+03   -0.11675E-06   -0.22889E-05  3920   0.590E-03    0.833E-02
RMM:   6    -0.379193539687E+03    0.27730E-04   -0.16091E-05  3897   0.504E-03    0.441E-02
RMM:   7    -0.379193532126E+03    0.75614E-05   -0.87414E-06  3841   0.369E-03    0.237E-02
RMM:   8    -0.379193530533E+03    0.15931E-05   -0.35568E-06  2593   0.252E-03    0.126E-02
RMM:   9    -0.379193529739E+03    0.79380E-06   -0.10261E-06  2120   0.147E-03
  11 F= -.41352325E+03 E0= -.41317544E+03  d E =0.669572E-05
       N       E                     dE             d eps       ncg     rms          rms(c)
DAV:   1    -0.379191670890E+03    0.18596E-02   -0.65545E-01  3920   0.133E+00    0.295E-01
RMM:   2    -0.379194180128E+03   -0.25092E-02   -0.22815E-02  3951   0.193E-01    0.388E-01
RMM:   3    -0.379193143682E+03    0.10364E-02   -0.23269E-03  3963   0.617E-02    0.301E-01
RMM:   4    -0.379194334412E+03   -0.11907E-02   -0.89677E-04  3949   0.362E-02    0.469E-01
RMM:   5    -0.379193592504E+03    0.74191E-03   -0.57706E-04  3951   0.265E-02    0.359E-01
RMM:   6    -0.379192972974E+03    0.61953E-03   -0.49542E-04  3942   0.275E-02    0.201E-01
RMM:   7    -0.379192761042E+03    0.21193E-03   -0.30920E-04  3941   0.224E-02    0.117E-01
RMM:   8    -0.379192727294E+03    0.33747E-04   -0.10799E-04  3941   0.132E-02    0.854E-02
RMM:   9    -0.379192688471E+03    0.38824E-04   -0.38841E-05  3935   0.820E-03    0.380E-02
RMM:  10    -0.379192676568E+03    0.11902E-04   -0.10492E-05  3906   0.426E-03    0.122E-02
RMM:  11    -0.379192676368E+03    0.19962E-06   -0.18098E-06  2147   0.183E-03
  12 F= -.41352622E+03 E0= -.41317836E+03  d E =-.296909E-02
       N       E                     dE             d eps       ncg     rms          rms(c)
DAV:   1    -0.379102165531E+03    0.90511E-01   -0.34019E+01  3920   0.780E+00    0.112E+00
RMM:   2    -0.379160195429E+03   -0.58030E-01   -0.48759E-01  3943   0.121E+00    0.163E+00
RMM:   3    -0.379153481722E+03    0.67137E-02   -0.35976E-02  3995   0.267E-01    0.117E+00
RMM:   4    -0.379214573360E+03   -0.61092E-01   -0.22353E-02  3963   0.173E-01    0.279E+00
RMM:   5    -0.379171400056E+03    0.43173E-01   -0.27491E-02  3947   0.184E-01    0.206E+00
RMM:   6    -0.379147330641E+03    0.24069E-01   -0.10933E-02  3948   0.133E-01    0.875E-01
RMM:   7    -0.379144405292E+03    0.29253E-02   -0.54337E-03  3942   0.938E-02    0.572E-01
RMM:   8    -0.379143788275E+03    0.61702E-03   -0.35482E-03  3942   0.774E-02    0.452E-01
RMM:   9    -0.379142741965E+03    0.10463E-02   -0.11458E-03  3944   0.444E-02    0.249E-01
RMM:  10    -0.379142371389E+03    0.37058E-03   -0.34963E-04  3935   0.235E-02    0.156E-01
RMM:  11    -0.379142235452E+03    0.13594E-03   -0.13503E-04  3942   0.151E-02    0.113E-01
RMM:  12    -0.379142157128E+03    0.78324E-04   -0.97550E-05  3941   0.127E-02    0.627E-02
RMM:  13    -0.379142142324E+03    0.14804E-04   -0.50793E-05  3937   0.882E-03    0.423E-02
RMM:  14    -0.379142143439E+03   -0.11144E-05   -0.25671E-05  3934   0.656E-03    0.400E-02
RMM:  15    -0.379142136768E+03    0.66708E-05   -0.99673E-06  3916   0.405E-03    0.159E-02
RMM:  16    -0.379142137530E+03   -0.76208E-06   -0.18356E-06  2197   0.196E-03
  13 F= -.41354780E+03 E0= -.41320133E+03  d E =-.215789E-01
       N       E                     dE             d eps       ncg     rms          rms(c)
DAV:   1    -0.379140694153E+03    0.14426E-02   -0.52202E-01  3920   0.124E+00    0.268E-01
RMM:   2    -0.379142924053E+03   -0.22299E-02   -0.17799E-02  3943   0.171E-01    0.396E-01
RMM:   3    -0.379141534565E+03    0.13895E-02   -0.20484E-03  3948   0.571E-02    0.251E-01
RMM:   4    -0.379142699078E+03   -0.11645E-02   -0.64176E-04  3952   0.297E-02    0.433E-01
RMM:   5    -0.379141437298E+03    0.12618E-02   -0.37605E-04  3944   0.218E-02    0.200E-01
RMM:   6    -0.379141498307E+03   -0.61009E-04   -0.30776E-04  3937   0.220E-02    0.214E-01
RMM:   7    -0.379141281734E+03    0.21657E-03   -0.20191E-04  3937   0.184E-02    0.101E-01
RMM:   8    -0.379141249348E+03    0.32386E-04   -0.77211E-05  3940   0.113E-02    0.612E-02
RMM:   9    -0.379141236765E+03    0.12583E-04   -0.25034E-05  3925   0.660E-03    0.410E-02
RMM:  10    -0.379141227443E+03    0.93217E-05   -0.87959E-06  3889   0.390E-03    0.152E-02
RMM:  11    -0.379141227109E+03    0.33483E-06   -0.15139E-06  2107   0.170E-03
  14 F= -.41354764E+03 E0= -.41320129E+03  d E =0.160993E-03
       N       E                     dE             d eps       ncg     rms          rms(c)
DAV:   1    -0.379141515075E+03   -0.28763E-03   -0.39663E-03  4060   0.978E-02    0.232E-02
RMM:   2    -0.379141556195E+03   -0.41120E-04   -0.11958E-04  3948   0.157E-02    0.747E-02
RMM:   3    -0.379141532792E+03    0.23404E-04   -0.13005E-05  3907   0.479E-03    0.353E-02
RMM:   4    -0.379141534787E+03   -0.19956E-05   -0.56647E-06  3274   0.279E-03    0.374E-02
RMM:   5    -0.379141527787E+03    0.70002E-05   -0.50947E-06  3239   0.291E-03    0.223E-02
RMM:   6    -0.379141528537E+03   -0.75001E-06   -0.39758E-06  2777   0.264E-03
  15 F= -.41354780E+03 E0= -.41320146E+03  d E =-.162752E-03
       N       E                     dE             d eps       ncg     rms          rms(c)
DAV:   1    -0.379137528184E+03    0.39996E-02   -0.64430E-01  3920   0.134E+00    0.261E-01
RMM:   2    -0.379140343893E+03   -0.28157E-02   -0.23069E-02  3953   0.192E-01    0.384E-01
RMM:   3    -0.379143813933E+03   -0.34700E-02   -0.28282E-03  3971   0.632E-02    0.787E-01
RMM:   4    -0.379138799981E+03    0.50140E-02   -0.84311E-04  3959   0.345E-02    0.194E-01
RMM:   5    -0.379138995492E+03   -0.19551E-03   -0.41898E-04  3944   0.258E-02    0.251E-01
RMM:   6    -0.379138810496E+03    0.18500E-03   -0.27105E-04  3945   0.207E-02    0.158E-01
RMM:   7    -0.379138709510E+03    0.10099E-03   -0.23180E-04  3942   0.195E-02    0.105E-01
RMM:   8    -0.379138686626E+03    0.22883E-04   -0.91096E-05  3942   0.123E-02    0.762E-02
RMM:   9    -0.379138657082E+03    0.29545E-04   -0.35012E-05  3934   0.780E-03    0.388E-02
RMM:  10    -0.379138646060E+03    0.11021E-04   -0.98549E-06  3906   0.410E-03    0.136E-02
RMM:  11    -0.379138645435E+03    0.62586E-06   -0.15737E-06  2119   0.171E-03
  16 F= -.41354920E+03 E0= -.41320288E+03  d E =-.139204E-02
       N       E                     dE             d eps       ncg     rms          rms(c)
DAV:   1    -0.378996771137E+03    0.14187E+00   -0.49266E+01  3920   0.971E+00    0.117E+00
RMM:   2    -0.379149710307E+03   -0.15294E+00   -0.77385E-01  3967   0.149E+00    0.320E+00
RMM:   3    -0.379110313121E+03    0.39397E-01   -0.67054E-02  4010   0.345E-01    0.232E+00
RMM:   4    -0.379076664575E+03    0.33649E-01   -0.23884E-02  3956   0.194E-01    0.142E+00
RMM:   5    -0.379069213934E+03    0.74506E-02   -0.13201E-02  3953   0.149E-01    0.128E+00
RMM:   6    -0.379061698751E+03    0.75152E-02   -0.67234E-03  3950   0.105E-01    0.634E-01
RMM:   7    -0.379062916418E+03   -0.12177E-02   -0.72155E-03  3943   0.110E-01    0.704E-01
RMM:   8    -0.379061257863E+03    0.16586E-02   -0.44010E-03  3943   0.856E-02    0.522E-01
RMM:   9    -0.379059813850E+03    0.14440E-02   -0.12522E-03  3947   0.463E-02    0.273E-01
RMM:  10    -0.379059405202E+03    0.40865E-03   -0.34642E-04  3942   0.234E-02    0.176E-01
RMM:  11    -0.379059212083E+03    0.19312E-03   -0.16626E-04  3941   0.165E-02    0.118E-01
RMM:  12    -0.379059136444E+03    0.75638E-04   -0.90006E-05  3933   0.120E-02    0.658E-02
RMM:  13    -0.379059126137E+03    0.10307E-04   -0.39667E-05  3938   0.774E-03    0.496E-02
RMM:  14    -0.379059117962E+03    0.81751E-05   -0.30554E-05  3936   0.715E-03    0.400E-02
RMM:  15    -0.379059107323E+03    0.10640E-04   -0.98990E-06  3907   0.413E-03    0.135E-02
RMM:  16    -0.379059107267E+03    0.55545E-07   -0.21609E-06  2209   0.209E-03
  17 F= -.41356301E+03 E0= -.41321980E+03  d E =-.138180E-01
       N       E                     dE             d eps       ncg     rms          rms(c)
DAV:   1    -0.379057868876E+03    0.12384E-02   -0.52198E-01  3920   0.125E+00    0.267E-01
RMM:   2    -0.379060119052E+03   -0.22502E-02   -0.18067E-02  3943   0.172E-01    0.386E-01
RMM:   3    -0.379058753762E+03    0.13653E-02   -0.21131E-03  3949   0.575E-02    0.261E-01
RMM:   4    -0.379059308784E+03   -0.55502E-03   -0.46120E-04  3962   0.257E-02    0.332E-01
RMM:   5    -0.379059218258E+03    0.90526E-04   -0.55186E-04  3943   0.261E-02    0.325E-01
RMM:   6    -0.379058656313E+03    0.56195E-03   -0.31495E-04  3946   0.219E-02    0.196E-01
RMM:   7    -0.379058490982E+03    0.16533E-03   -0.19743E-04  3942   0.182E-02    0.101E-01
RMM:   8    -0.379058457995E+03    0.32987E-04   -0.75923E-05  3942   0.112E-02    0.617E-02
RMM:   9    -0.379058444065E+03    0.13930E-04   -0.24879E-05  3930   0.658E-03    0.410E-02
RMM:  10    -0.379058433710E+03    0.10355E-04   -0.90143E-06  3891   0.395E-03    0.151E-02
RMM:  11    -0.379058432796E+03    0.91404E-06   -0.14814E-06  2075   0.169E-03
  18 F= -.41356300E+03 E0= -.41321992E+03  d E =0.910337E-05
       N       E                     dE             d eps       ncg     rms          rms(c)
DAV:   1    -0.379058494060E+03   -0.60350E-04   -0.39115E-03  4060   0.962E-02    0.275E-02
RMM:   2    -0.379058528020E+03   -0.33960E-04   -0.12117E-04  3951   0.156E-02    0.701E-02
RMM:   3    -0.379058503472E+03    0.24549E-04   -0.10356E-05  3902   0.447E-03    0.257E-02
RMM:   4    -0.379058520036E+03   -0.16564E-04   -0.76878E-06  3675   0.339E-03    0.487E-02
RMM:   5    -0.379058532988E+03   -0.12951E-04   -0.12266E-05  3803   0.376E-03    0.614E-02
RMM:   6    -0.379058505881E+03    0.27106E-04   -0.91789E-06  3828   0.361E-03    0.233E-02
RMM:   7    -0.379058503777E+03    0.21046E-05   -0.22950E-06  2258   0.214E-03    0.122E-02
RMM:   8    -0.379058503540E+03    0.23713E-06   -0.11309E-06  2080   0.157E-03
  19 F= -.41356299E+03 E0= -.41321991E+03  d E =0.186941E-04
       N       E                     dE             d eps       ncg     rms          rms(c)
DAV:   1    -0.379059327067E+03   -0.82329E-03   -0.62641E-01  3920   0.135E+00    0.259E-01
RMM:   2    -0.379063076133E+03   -0.37491E-02   -0.23904E-02  3946   0.192E-01    0.501E-01
RMM:   3    -0.379067900409E+03   -0.48243E-02   -0.30651E-03  3960   0.634E-02    0.933E-01
RMM:   4    -0.379060574662E+03    0.73257E-02   -0.15026E-03  3940   0.462E-02    0.202E-01
RMM:   5    -0.379060599239E+03   -0.24577E-04   -0.42398E-04  3943   0.262E-02    0.221E-01
RMM:   6    -0.379060561980E+03    0.37259E-04   -0.25584E-04  3942   0.203E-02    0.172E-01
RMM:   7    -0.379060426158E+03    0.13582E-03   -0.20924E-04  3939   0.187E-02    0.914E-02
RMM:   8    -0.379060404598E+03    0.21560E-04   -0.96617E-05  3941   0.127E-02    0.625E-02
RMM:   9    -0.379060385504E+03    0.19094E-04   -0.32303E-05  3932   0.759E-03    0.413E-02
RMM:  10    -0.379060374942E+03    0.10562E-04   -0.88104E-06  3899   0.386E-03    0.145E-02
RMM:  11    -0.379060374095E+03    0.84776E-06   -0.21591E-06  2165   0.201E-03
  20 F= -.41356583E+03 E0= -.41322276E+03  d E =-.284196E-02
       N       E                     dE             d eps       ncg     rms          rms(c)
DAV:   1    -0.379044724576E+03    0.15650E-01   -0.71673E+00  3920   0.411E+00    0.774E-01
RMM:   2    -0.379116894343E+03   -0.72170E-01   -0.18919E-01  3948   0.626E-01    0.267E+00
RMM:   3    -0.379062628070E+03    0.54266E-01   -0.11334E-02  3977   0.139E-01    0.839E-01
RMM:   4    -0.379073546120E+03   -0.10918E-01   -0.10491E-02  3943   0.130E-01    0.138E+00
RMM:   5    -0.379062826172E+03    0.10720E-01   -0.60628E-03  3943   0.986E-02    0.779E-01
RMM:   6    -0.379060805624E+03    0.20205E-02   -0.27709E-03  3942   0.663E-02    0.556E-01
RMM:   7    -0.379059555140E+03    0.12505E-02   -0.13019E-03  3947   0.454E-02    0.396E-01
RMM:   8    -0.379058735546E+03    0.81959E-03   -0.55980E-04  3945   0.300E-02    0.174E-01
RMM:   9    -0.379058580403E+03    0.15514E-03   -0.17045E-04  3946   0.164E-02    0.875E-02
RMM:  10    -0.379058546802E+03    0.33601E-04   -0.54171E-05  3940   0.930E-03    0.537E-02
RMM:  11    -0.379058534883E+03    0.11919E-04   -0.47945E-05  3932   0.881E-03    0.391E-02
RMM:  12    -0.379058528524E+03    0.63595E-05   -0.24263E-05  3926   0.619E-03    0.207E-02
RMM:  13    -0.379058529022E+03   -0.49817E-06   -0.70677E-06  3771   0.349E-03
  21 F= -.41357523E+03 E0= -.41323326E+03  d E =-.940218E-02
       N       E                     dE             d eps       ncg     rms          rms(c)
DAV:   1    -0.379057447033E+03    0.10815E-02   -0.52339E-01  3920   0.124E+00    0.275E-01
RMM:   2    -0.379059756790E+03   -0.23098E-02   -0.17957E-02  3943   0.171E-01    0.399E-01
RMM:   3    -0.379058666139E+03    0.10907E-02   -0.22192E-03  3948   0.587E-02    0.347E-01
RMM:   4    -0.379058699654E+03   -0.33515E-04   -0.47879E-04  3969   0.262E-02    0.308E-01
RMM:   5    -0.379058730208E+03   -0.30554E-04   -0.54237E-04  3943   0.264E-02    0.327E-01
RMM:   6    -0.379058203251E+03    0.52696E-03   -0.33944E-04  3942   0.227E-02    0.190E-01
RMM:   7    -0.379058038936E+03    0.16432E-03   -0.23839E-04  3943   0.200E-02    0.100E-01
RMM:   8    -0.379058007339E+03    0.31597E-04   -0.80263E-05  3943   0.115E-02    0.632E-02
RMM:   9    -0.379057994104E+03    0.13235E-04   -0.26161E-05  3935   0.671E-03    0.444E-02
RMM:  10    -0.379057982909E+03    0.11195E-04   -0.91306E-06  3891   0.396E-03    0.176E-02
RMM:  11    -0.379057982101E+03    0.80800E-06   -0.17262E-06  2145   0.181E-03
  22 F= -.41357537E+03 E0= -.41323356E+03  d E =-.142774E-03
       N       E                     dE             d eps       ncg     rms          rms(c)
DAV:   1    -0.379057979314E+03    0.35955E-05   -0.34668E-03  4060   0.820E-02    0.170E-02
RMM:   2    -0.379058079020E+03   -0.99706E-04   -0.89673E-05  3946   0.142E-02    0.107E-01
RMM:   3    -0.379057987564E+03    0.91456E-04   -0.14294E-05  3910   0.462E-03    0.275E-02
RMM:   4    -0.379057988588E+03   -0.10239E-05   -0.41465E-06  2788   0.275E-03    0.247E-02
RMM:   5    -0.379057987695E+03    0.89267E-06   -0.21505E-06  2211   0.206E-03
  23 F= -.41357540E+03 E0= -.41323358E+03  d E =-.317861E-04
       N       E                     dE             d eps       ncg     rms          rms(c)
DAV:   1    -0.379056286212E+03    0.17024E-02   -0.59477E-01  3920   0.129E+00    0.244E-01
RMM:   2    -0.379059676224E+03   -0.33900E-02   -0.20640E-02  3948   0.182E-01    0.465E-01
RMM:   3    -0.379064610608E+03   -0.49344E-02   -0.29005E-03  3965   0.612E-02    0.922E-01
RMM:   4    -0.379057402532E+03    0.72081E-02   -0.14631E-03  3940   0.463E-02    0.175E-01
RMM:   5    -0.379057362933E+03    0.39599E-04   -0.32815E-04  3946   0.230E-02    0.148E-01
RMM:   6    -0.379057409732E+03   -0.46799E-04   -0.21918E-04  3943   0.189E-02    0.163E-01
RMM:   7    -0.379057312726E+03    0.97007E-04   -0.14934E-04  3941   0.158E-02    0.954E-02
RMM:   8    -0.379057296418E+03    0.16307E-04   -0.75468E-05  3940   0.112E-02    0.717E-02
RMM:   9    -0.379057272841E+03    0.23577E-04   -0.26593E-05  3927   0.683E-03    0.387E-02
RMM:  10    -0.379057262841E+03    0.10000E-04   -0.90721E-06  3890   0.394E-03    0.125E-02
RMM:  11    -0.379057262155E+03    0.68630E-06   -0.16771E-06  2098   0.179E-03
  24 F= -.41357589E+03 E0= -.41323403E+03  d E =-.485680E-03
       N       E                     dE             d eps       ncg     rms          rms(c)
DAV:   1    -0.379051921990E+03    0.53409E-02   -0.81600E-01  3920   0.134E+00    0.202E-01
RMM:   2    -0.379056071475E+03   -0.41495E-02   -0.16696E-02  3960   0.199E-01    0.601E-01
RMM:   3    -0.379053429664E+03    0.26418E-02   -0.11690E-03  4007   0.448E-02    0.176E-01
RMM:   4    -0.379054375012E+03   -0.94535E-03   -0.85418E-04  3948   0.365E-02    0.383E-01
RMM:   5    -0.379053675008E+03    0.70000E-03   -0.40130E-04  3945   0.251E-02    0.281E-01
RMM:   6    -0.379053354624E+03    0.32038E-03   -0.17639E-04  3946   0.169E-02    0.162E-01
RMM:   7    -0.379053304822E+03    0.49802E-04   -0.14788E-04  3943   0.153E-02    0.126E-01
RMM:   8    -0.379053237762E+03    0.67060E-04   -0.78033E-05  3945   0.112E-02    0.724E-02
RMM:   9    -0.379053209029E+03    0.28732E-04   -0.26645E-05  3930   0.663E-03    0.290E-02
RMM:  10    -0.379053204194E+03    0.48355E-05   -0.68819E-06  3728   0.336E-03    0.151E-02
RMM:  11    -0.379053203372E+03    0.82153E-06   -0.45486E-06  3070   0.270E-03
  25 F= -.41357658E+03 E0= -.41323495E+03  d E =-.691897E-03
       N       E                     dE             d eps       ncg     rms          rms(c)
DAV:   1    -0.379052228646E+03    0.97555E-03   -0.52346E-01  3920   0.124E+00    0.272E-01
RMM:   2    -0.379054512268E+03   -0.22836E-02   -0.17999E-02  3943   0.171E-01    0.398E-01
RMM:   3    -0.379053182518E+03    0.13298E-02   -0.21574E-03  3948   0.581E-02    0.296E-01
RMM:   4    -0.379053499780E+03   -0.31726E-03   -0.47131E-04  3962   0.265E-02    0.311E-01
RMM:   5    -0.379053738518E+03   -0.23874E-03   -0.56163E-04  3945   0.260E-02    0.362E-01
RMM:   6    -0.379052969199E+03    0.76932E-03   -0.33830E-04  3943   0.224E-02    0.189E-01
RMM:   7    -0.379052813441E+03    0.15576E-03   -0.22864E-04  3943   0.196E-02    0.100E-01
RMM:   8    -0.379052780588E+03    0.32853E-04   -0.79812E-05  3944   0.115E-02    0.614E-02
RMM:   9    -0.379052767833E+03    0.12755E-04   -0.25327E-05  3934   0.663E-03    0.440E-02
RMM:  10    -0.379052756645E+03    0.11188E-04   -0.88824E-06  3891   0.392E-03    0.174E-02
RMM:  11    -0.379052755553E+03    0.10920E-05   -0.16482E-06  2122   0.177E-03    0.116E-02
RMM:  12    -0.379052755520E+03    0.32895E-07   -0.77366E-07  2064   0.120E-03
  26 F= -.41357684E+03 E0= -.41323535E+03  d E =-.253794E-03
       N       E                     dE             d eps       ncg     rms          rms(c)
DAV:   1    -0.379052771032E+03   -0.15479E-04   -0.35627E-03  4032   0.847E-02    0.140E-02
RMM:   2    -0.379052789010E+03   -0.17978E-04   -0.70807E-05  3944   0.133E-02    0.423E-02
RMM:   3    -0.379052779435E+03    0.95746E-05   -0.54798E-06  3216   0.314E-03    0.218E-02
RMM:   4    -0.379052779199E+03    0.23662E-06   -0.25324E-06  2320   0.223E-03
  27 F= -.41357681E+03 E0= -.41323534E+03  d E =0.226987E-04
       N       E                     dE             d eps       ncg     rms          rms(c)
DAV:   1    -0.379050199374E+03    0.25801E-02   -0.58986E-01  3920   0.128E+00    0.245E-01
RMM:   2    -0.379052428640E+03   -0.22293E-02   -0.19867E-02  3949   0.180E-01    0.346E-01
RMM:   3    -0.379051693432E+03    0.73521E-03   -0.18159E-03  3963   0.547E-02    0.315E-01
RMM:   4    -0.379051883887E+03   -0.19046E-03   -0.54299E-04  3958   0.288E-02    0.305E-01
RMM:   5    -0.379051658273E+03    0.22561E-03   -0.33147E-04  3958   0.200E-02    0.262E-01
RMM:   6    -0.379051281599E+03    0.37667E-03   -0.28081E-04  3940   0.208E-02    0.129E-01
RMM:   7    -0.379051205160E+03    0.76439E-04   -0.19973E-04  3939   0.181E-02    0.811E-02
RMM:   8    -0.379051192682E+03    0.12478E-04   -0.72431E-05  3941   0.109E-02    0.570E-02
RMM:   9    -0.379051167837E+03    0.24845E-04   -0.24667E-05  3927   0.666E-03    0.237E-02
RMM:  10    -0.379051164794E+03    0.30432E-05   -0.38240E-06  2735   0.265E-03    0.121E-02
RMM:  11    -0.379051164519E+03    0.27458E-06   -0.13835E-06  2060   0.162E-03
  28 F= -.41357675E+03 E0= -.41323520E+03  d E =0.624821E-04
       N       E                     dE             d eps       ncg     rms          rms(c)
DAV:   1    -0.379049659241E+03    0.15056E-02   -0.56654E-02  3920   0.353E-01    0.488E-02
RMM:   2    -0.379049853889E+03   -0.19465E-03   -0.11355E-03  3962   0.520E-02    0.113E-01
RMM:   3    -0.379049851183E+03    0.27067E-05   -0.10429E-04  3995   0.129E-02    0.106E-01
RMM:   4    -0.379049793996E+03    0.57186E-04   -0.63257E-05  3955   0.959E-03    0.819E-02
RMM:   5    -0.379049764235E+03    0.29762E-04   -0.15192E-05  3927   0.519E-03    0.515E-02
RMM:   6    -0.379049754545E+03    0.96900E-05   -0.14504E-05  3903   0.478E-03    0.347E-02
RMM:   7    -0.379049751953E+03    0.25915E-05   -0.78107E-06  3852   0.359E-03    0.238E-02
RMM:   8    -0.379049752099E+03   -0.14629E-06   -0.54722E-06  3397   0.307E-03
  29 F= -.41357678E+03 E0= -.41323527E+03  d E =-.294882E-04
       N       E                     dE             d eps       ncg     rms          rms(c)
DAV:   1    -0.379048832402E+03    0.91955E-03   -0.52335E-01  3920   0.124E+00    0.272E-01
RMM:   2    -0.379051100354E+03   -0.22680E-02   -0.17994E-02  3943   0.171E-01    0.388E-01
RMM:   3    -0.379050911535E+03    0.18882E-03   -0.23326E-03  3947   0.592E-02    0.462E-01
RMM:   4    -0.379049614879E+03    0.12967E-02   -0.43146E-04  3971   0.249E-02    0.214E-01
RMM:   5    -0.379049814167E+03   -0.19929E-03   -0.44695E-04  3940   0.256E-02    0.265E-01
RMM:   6    -0.379049614372E+03    0.19980E-03   -0.29874E-04  3943   0.215E-02    0.204E-01
RMM:   7    -0.379049426312E+03    0.18806E-03   -0.21326E-04  3940   0.189E-02    0.998E-02
RMM:   8    -0.379049392691E+03    0.33621E-04   -0.78249E-05  3940   0.114E-02    0.573E-02
RMM:   9    -0.379049375199E+03    0.17492E-04   -0.24356E-05  3927   0.656E-03    0.336E-02
RMM:  10    -0.379049369066E+03    0.61338E-05   -0.68214E-06  3762   0.344E-03    0.158E-02
RMM:  11    -0.379049368074E+03    0.99110E-06   -0.13284E-06  2091   0.159E-03
  30 F= -.41357707E+03 E0= -.41323570E+03  d E =-.290650E-03
       N       E                     dE             d eps       ncg     rms          rms(c)
DAV:   1    -0.379049365798E+03    0.32673E-05   -0.26617E-03  4060   0.710E-02    0.108E-02
RMM:   2    -0.379049379785E+03   -0.13987E-04   -0.49218E-05  3943   0.114E-02    0.382E-02
RMM:   3    -0.379049377096E+03    0.26895E-05   -0.66086E-06  3628   0.326E-03    0.304E-02
RMM:   4    -0.379049370271E+03    0.68248E-05   -0.19941E-06  2271   0.186E-03    0.120E-02
RMM:   5    -0.379049369767E+03    0.50401E-06   -0.89385E-07  2013   0.136E-03
  31 F= -.41357706E+03 E0= -.41323571E+03  d E =0.737331E-05
       N       E                     dE             d eps       ncg     rms          rms(c)
DAV:   1    -0.379046744584E+03    0.26257E-02   -0.59071E-01  3920   0.128E+00    0.247E-01
RMM:   2    -0.379048902469E+03   -0.21579E-02   -0.19953E-02  3951   0.181E-01    0.324E-01
RMM:   3    -0.379048095150E+03    0.80732E-03   -0.18502E-03  3966   0.546E-02    0.255E-01
RMM:   4    -0.379049077251E+03   -0.98210E-03   -0.59691E-04  3963   0.285E-02    0.411E-01
RMM:   5    -0.379047968674E+03    0.11086E-02   -0.34707E-04  3953   0.213E-02    0.210E-01
RMM:   6    -0.379047894557E+03    0.74117E-04   -0.27012E-04  3943   0.207E-02    0.168E-01
RMM:   7    -0.379047767897E+03    0.12666E-03   -0.20148E-04  3943   0.181E-02    0.959E-02
RMM:   8    -0.379047747814E+03    0.20084E-04   -0.75551E-05  3941   0.111E-02    0.659E-02
RMM:   9    -0.379047721398E+03    0.26415E-04   -0.27161E-05  3928   0.692E-03    0.356E-02
RMM:  10    -0.379047713970E+03    0.74286E-05   -0.67490E-06  3731   0.339E-03    0.142E-02
RMM:  11    -0.379047713494E+03    0.47593E-06   -0.14629E-06  2104   0.166E-03
  32 F= -.41357705E+03 E0= -.41323559E+03  d E =0.133987E-04
       N       E                     dE             d eps       ncg     rms          rms(c)
DAV:   1    -0.379040193642E+03    0.75203E-02   -0.10033E+00  3920   0.147E+00    0.178E-01
RMM:   2    -0.379042323866E+03   -0.21302E-02   -0.18981E-02  3964   0.216E-01    0.244E-01
RMM:   3    -0.379042572411E+03   -0.24854E-03   -0.16994E-03  3992   0.541E-02    0.327E-01
RMM:   4    -0.379042536333E+03    0.36078E-04   -0.53350E-04  3980   0.275E-02    0.309E-01
RMM:   5    -0.379041861688E+03    0.67464E-03   -0.30801E-04  3957   0.212E-02    0.168E-01
RMM:   6    -0.379041733076E+03    0.12861E-03   -0.11228E-04  3961   0.136E-02    0.923E-02
RMM:   7    -0.379041721817E+03    0.11259E-04   -0.88632E-05  3943   0.121E-02    0.785E-02
RMM:   8    -0.379041734806E+03   -0.12989E-04   -0.10335E-04  3939   0.131E-02    0.740E-02
RMM:   9    -0.379041707096E+03    0.27709E-04   -0.40611E-05  3941   0.830E-03    0.351E-02
RMM:  10    -0.379041699978E+03    0.71186E-05   -0.86409E-06  3886   0.380E-03    0.157E-02
RMM:  11    -0.379041698963E+03    0.10149E-05   -0.23885E-06  2222   0.213E-03    0.145E-02
RMM:  12    -0.379041698101E+03    0.86126E-06   -0.17290E-06  2111   0.190E-03
  33 F= -.41357741E+03 E0= -.41323608E+03  d E =-.362617E-03
       N       E                     dE             d eps       ncg     rms          rms(c)
DAV:   1    -0.379040957371E+03    0.74159E-03   -0.52352E-01  3920   0.124E+00    0.272E-01
RMM:   2    -0.379043219970E+03   -0.22626E-02   -0.18175E-02  3943   0.172E-01    0.396E-01
RMM:   3    -0.379041981348E+03    0.12386E-02   -0.21268E-03  3948   0.581E-02    0.283E-01
RMM:   4    -0.379043191557E+03   -0.12102E-02   -0.71614E-04  3956   0.306E-02    0.460E-01
RMM:   5    -0.379041642881E+03    0.15487E-02   -0.38080E-04  3942   0.227E-02    0.180E-01
RMM:   6    -0.379041787006E+03   -0.14413E-03   -0.30468E-04  3943   0.220E-02    0.218E-01
RMM:   7    -0.379041561819E+03    0.22519E-03   -0.20530E-04  3942   0.185E-02    0.103E-01
RMM:   8    -0.379041526852E+03    0.34967E-04   -0.79435E-05  3942   0.114E-02    0.610E-02
RMM:   9    -0.379041510795E+03    0.16057E-04   -0.24872E-05  3921   0.659E-03    0.396E-02
RMM:  10    -0.379041501537E+03    0.92581E-05   -0.82964E-06  3881   0.378E-03    0.155E-02
RMM:  11    -0.379041500587E+03    0.94991E-06   -0.14954E-06  2094   0.169E-03
  34 F= -.41357787E+03 E0= -.41323667E+03  d E =-.452372E-03
       N       E                     dE             d eps       ncg     rms          rms(c)
DAV:   1    -0.379041389627E+03    0.11191E-03   -0.63794E-03  4032   0.111E-01    0.154E-02
RMM:   2    -0.379041445358E+03   -0.55731E-04   -0.11477E-04  3954   0.173E-02    0.861E-02
RMM:   3    -0.379041409683E+03    0.35674E-04   -0.16047E-05  3932   0.505E-03    0.399E-02
RMM:   4    -0.379041400287E+03    0.93959E-05   -0.39372E-06  2734   0.250E-03    0.197E-02
RMM:   5    -0.379041398829E+03    0.14589E-05   -0.19171E-06  2183   0.195E-03    0.150E-02
RMM:   6    -0.379041398164E+03    0.66431E-06   -0.11510E-06  2056   0.160E-03
  35 F= -.41357788E+03 E0= -.41323668E+03  d E =-.109904E-04
       N       E                     dE             d eps       ncg     rms          rms(c)
DAV:   1    -0.379039091560E+03    0.23073E-02   -0.59391E-01  3920   0.129E+00    0.253E-01
RMM:   2    -0.379041403461E+03   -0.23119E-02   -0.20871E-02  3951   0.183E-01    0.349E-01
RMM:   3    -0.379040301164E+03    0.11023E-02   -0.19398E-03  3966   0.559E-02    0.222E-01
RMM:   4    -0.379041463547E+03   -0.11624E-02   -0.61336E-04  3957   0.293E-02    0.424E-01
RMM:   5    -0.379040394516E+03    0.10690E-02   -0.37418E-04  3952   0.217E-02    0.233E-01
RMM:   6    -0.379040266271E+03    0.12824E-03   -0.29258E-04  3943   0.213E-02    0.182E-01
RMM:   7    -0.379040105335E+03    0.16094E-03   -0.20584E-04  3941   0.185E-02    0.942E-02
RMM:   8    -0.379040089450E+03    0.15886E-04   -0.78763E-05  3942   0.113E-02    0.696E-02
RMM:   9    -0.379040059968E+03    0.29481E-04   -0.28576E-05  3927   0.709E-03    0.350E-02
RMM:  10    -0.379040052223E+03    0.77451E-05   -0.74254E-06  3834   0.355E-03    0.138E-02
RMM:  11    -0.379040051717E+03    0.50592E-06   -0.14760E-06  2091   0.166E-03
  36 F= -.41357781E+03 E0= -.41323649E+03  d E =0.703912E-04
       N       E                     dE             d eps       ncg     rms          rms(c)
DAV:   1    -0.379027065293E+03    0.12987E-01   -0.28772E+00  3920   0.246E+00    0.280E-01
RMM:   2    -0.379034579094E+03   -0.75138E-02   -0.52228E-02  3965   0.363E-01    0.594E-01
RMM:   3    -0.379036490087E+03   -0.19110E-02   -0.48224E-03  4005   0.886E-02    0.754E-01
RMM:   4    -0.379032323301E+03    0.41668E-02   -0.20095E-03  3954   0.557E-02    0.337E-01
RMM:   5    -0.379031598940E+03    0.72436E-03   -0.65555E-04  3954   0.327E-02    0.225E-01
RMM:   6    -0.379031436627E+03    0.16231E-03   -0.23029E-04  3953   0.199E-02    0.159E-01
RMM:   7    -0.379031426575E+03    0.10052E-04   -0.24199E-04  3939   0.201E-02    0.144E-01
RMM:   8    -0.379031400148E+03    0.26427E-04   -0.28097E-04  3942   0.215E-02    0.112E-01
RMM:   9    -0.379031321930E+03    0.78217E-04   -0.90481E-05  3948   0.124E-02    0.449E-02
RMM:  10    -0.379031312052E+03    0.98787E-05   -0.15284E-05  3936   0.505E-03    0.234E-02
RMM:  11    -0.379031309999E+03    0.20530E-05   -0.69154E-06  3836   0.342E-03    0.226E-02
RMM:  12    -0.379031308064E+03    0.19350E-05   -0.50558E-06  3378   0.292E-03    0.198E-02
RMM:  13    -0.379031306591E+03    0.14729E-05   -0.28627E-06  2286   0.234E-03    0.113E-02
RMM:  14    -0.379031306491E+03    0.99790E-07   -0.16026E-06  2071   0.186E-03
  37 F= -.41357859E+03 E0= -.41323742E+03  d E =-.783015E-03
       N       E                     dE             d eps       ncg     rms          rms(c)
DAV:   1    -0.379030717230E+03    0.58936E-03   -0.52302E-01  3920   0.125E+00    0.274E-01
RMM:   2    -0.379033011169E+03   -0.22939E-02   -0.18025E-02  3943   0.172E-01    0.395E-01
RMM:   3    -0.379031789160E+03    0.12220E-02   -0.22599E-03  3948   0.590E-02    0.312E-01
RMM:   4    -0.379031990448E+03   -0.20129E-03   -0.44912E-04  3970   0.252E-02    0.313E-01
RMM:   5    -0.379031831962E+03    0.15849E-03   -0.53164E-04  3943   0.264E-02    0.291E-01
RMM:   6    -0.379031491675E+03    0.34029E-03   -0.31405E-04  3942   0.220E-02    0.212E-01
RMM:   7    -0.379031295360E+03    0.19631E-03   -0.20557E-04  3943   0.186E-02    0.102E-01
RMM:   8    -0.379031258671E+03    0.36689E-04   -0.80538E-05  3942   0.115E-02    0.601E-02
RMM:   9    -0.379031244630E+03    0.14041E-04   -0.25290E-05  3931   0.664E-03    0.403E-02
RMM:  10    -0.379031235070E+03    0.95598E-05   -0.86051E-06  3886   0.386E-03    0.159E-02
RMM:  11    -0.379031233986E+03    0.10844E-05   -0.15359E-06  2095   0.171E-03    0.897E-03
RMM:  12    -0.379031234406E+03   -0.42039E-06   -0.82695E-07  2067   0.128E-03
  38 F= -.41357922E+03 E0= -.41323818E+03  d E =-.631774E-03
       N       E                     dE             d eps       ncg     rms          rms(c)
DAV:   1    -0.379031349467E+03   -0.11548E-03   -0.40824E-03  4060   0.103E-01    0.175E-02
RMM:   2    -0.379031366710E+03   -0.17243E-04   -0.10372E-04  3953   0.142E-02    0.409E-02
RMM:   3    -0.379031357937E+03    0.87735E-05   -0.69133E-06  3594   0.360E-03    0.162E-02
RMM:   4    -0.379031369020E+03   -0.11083E-04   -0.41936E-06  2831   0.253E-03    0.371E-02
RMM:   5    -0.379031362176E+03    0.68436E-05   -0.39770E-06  2787   0.233E-03    0.262E-02
RMM:   6    -0.379031358505E+03    0.36707E-05   -0.24111E-06  2298   0.216E-03    0.148E-02
RMM:   7    -0.379031357969E+03    0.53669E-06   -0.10275E-06  2032   0.149E-03
  39 F= -.41357924E+03 E0= -.41323821E+03  d E =-.186500E-04
       N       E                     dE             d eps       ncg     rms          rms(c)
DAV:   1    -0.379029872855E+03    0.14857E-02   -0.68359E-01  3920   0.139E+00    0.269E-01
RMM:   2    -0.379032725959E+03   -0.28531E-02   -0.24832E-02  3954   0.198E-01    0.383E-01
RMM:   3    -0.379031642246E+03    0.10837E-02   -0.24429E-03  3969   0.614E-02    0.320E-01
RMM:   4    -0.379031938231E+03   -0.29599E-03   -0.53972E-04  3963   0.274E-02    0.340E-01
RMM:   5    -0.379031587944E+03    0.35029E-03   -0.53512E-04  3944   0.265E-02    0.294E-01
RMM:   6    -0.379031181999E+03    0.40595E-03   -0.28720E-04  3945   0.211E-02    0.172E-01
RMM:   7    -0.379031058690E+03    0.12331E-03   -0.22133E-04  3942   0.192E-02    0.977E-02
RMM:   8    -0.379031035363E+03    0.23327E-04   -0.95927E-05  3943   0.126E-02    0.655E-02
RMM:   9    -0.379031010415E+03    0.24947E-04   -0.32561E-05  3935   0.761E-03    0.381E-02
RMM:  10    -0.379031001430E+03    0.89847E-05   -0.84081E-06  3890   0.379E-03    0.151E-02
RMM:  11    -0.379031000559E+03    0.87119E-06   -0.17018E-06  2106   0.180E-03
  40 F= -.41357906E+03 E0= -.41323790E+03  d E =0.181192E-03
       N       E                     dE             d eps       ncg     rms          rms(c)
DAV:   1    -0.379029078176E+03    0.19233E-02   -0.52414E-01  3920   0.101E+00    0.110E-01
RMM:   2    -0.379029996812E+03   -0.91864E-03   -0.85230E-03  3949   0.153E-01    0.149E-01
RMM:   3    -0.379030379573E+03   -0.38276E-03   -0.62759E-04  4026   0.333E-02    0.249E-01
RMM:   4    -0.379030194462E+03    0.18511E-03   -0.27762E-04  3974   0.193E-02    0.213E-01
RMM:   5    -0.379029871937E+03    0.32252E-03   -0.12996E-04  3949   0.143E-02    0.106E-01
RMM:   6    -0.379029839939E+03    0.31998E-04   -0.71129E-05  3946   0.107E-02    0.726E-02
RMM:   7    -0.379029843346E+03   -0.34062E-05   -0.70889E-05  3941   0.107E-02    0.720E-02
RMM:   8    -0.379029817236E+03    0.26110E-04   -0.40783E-05  3945   0.829E-03    0.359E-02
RMM:   9    -0.379029809141E+03    0.80948E-05   -0.99222E-06  3917   0.412E-03    0.129E-02
RMM:  10    -0.379029808259E+03    0.88129E-06   -0.20773E-06  2160   0.199E-03
  41 F= -.41357940E+03 E0= -.41323828E+03  d E =-.340338E-03
       N       E                     dE             d eps       ncg     rms          rms(c)
DAV:   1    -0.379029212642E+03    0.59650E-03   -0.52322E-01  3920   0.124E+00    0.273E-01
RMM:   2    -0.379031559356E+03   -0.23467E-02   -0.18133E-02  3943   0.172E-01    0.401E-01
RMM:   3    -0.379030823797E+03    0.73556E-03   -0.23361E-03  3948   0.598E-02    0.403E-01
RMM:   4    -0.379030306042E+03    0.51776E-03   -0.47852E-04  3973   0.260E-02    0.279E-01
RMM:   5    -0.379030268572E+03    0.37470E-04   -0.48778E-04  3943   0.259E-02    0.280E-01
RMM:   6    -0.379029972277E+03    0.29630E-03   -0.29883E-04  3942   0.214E-02    0.195E-01
RMM:   7    -0.379029806695E+03    0.16558E-03   -0.21544E-04  3943   0.191E-02    0.100E-01
RMM:   8    -0.379029773783E+03    0.32911E-04   -0.80457E-05  3942   0.116E-02    0.614E-02
RMM:   9    -0.379029759804E+03    0.13980E-04   -0.25266E-05  3933   0.661E-03    0.419E-02
RMM:  10    -0.379029749394E+03    0.10410E-04   -0.91072E-06  3892   0.397E-03    0.160E-02
RMM:  11    -0.379029748346E+03    0.10476E-05   -0.15624E-06  2106   0.173E-03    0.981E-03
RMM:  12    -0.379029748697E+03   -0.35028E-06   -0.76884E-07  2076   0.120E-03
  42 F= -.41357998E+03 E0= -.41323899E+03  d E =-.576928E-03
       N       E                     dE             d eps       ncg     rms          rms(c)
DAV:   1    -0.379029840696E+03   -0.92349E-04   -0.59098E-03  4004   0.109E-01    0.216E-02
RMM:   2    -0.379029860451E+03   -0.19755E-04   -0.12784E-04  3945   0.176E-02    0.419E-02
RMM:   3    -0.379029854481E+03    0.59706E-05   -0.86268E-06  3750   0.402E-03    0.293E-02
RMM:   4    -0.379029860652E+03   -0.61710E-05   -0.46249E-06  2985   0.257E-03    0.368E-02
RMM:   5    -0.379029859325E+03    0.13270E-05   -0.76167E-06  3782   0.340E-03    0.411E-02
RMM:   6    -0.379029851667E+03    0.76577E-05   -0.41636E-06  2847   0.269E-03    0.171E-02
RMM:   7    -0.379029850690E+03    0.97694E-06   -0.20472E-06  2212   0.201E-03
  43 F= -.41357999E+03 E0= -.41323900E+03  d E =-.131193E-04
       N       E                     dE             d eps       ncg     rms          rms(c)
DAV:   1    -0.379028272470E+03    0.15792E-02   -0.73367E-01  3920   0.144E+00    0.293E-01
RMM:   2    -0.379031415654E+03   -0.31432E-02   -0.27063E-02  3951   0.206E-01    0.413E-01
RMM:   3    -0.379031360870E+03    0.54784E-04   -0.29298E-03  3963   0.665E-02    0.504E-01
RMM:   4    -0.379029953558E+03    0.14073E-02   -0.64878E-04  3965   0.299E-02    0.277E-01
RMM:   5    -0.379029892428E+03    0.61130E-04   -0.55304E-04  3944   0.285E-02    0.280E-01
RMM:   6    -0.379029648974E+03    0.24345E-03   -0.33298E-04  3943   0.229E-02    0.189E-01
RMM:   7    -0.379029498839E+03    0.15014E-03   -0.26695E-04  3944   0.210E-02    0.112E-01
RMM:   8    -0.379029463983E+03    0.34856E-04   -0.11182E-04  3943   0.136E-02    0.755E-02
RMM:   9    -0.379029435607E+03    0.28376E-04   -0.38271E-05  3934   0.818E-03    0.438E-02
RMM:  10    -0.379029422535E+03    0.13071E-04   -0.11310E-05  3912   0.438E-03    0.145E-02
RMM:  11    -0.379029421636E+03    0.89961E-06   -0.20139E-06  2135   0.196E-03
  44 F= -.41357947E+03 E0= -.41323836E+03  d E =0.515038E-03
       N       E                     dE             d eps       ncg     rms          rms(c)
DAV:   1    -0.379029359323E+03    0.63212E-04   -0.21829E-03  4060   0.643E-02    0.116E-02
RMM:   2    -0.379029383317E+03   -0.23994E-04   -0.44770E-05  3940   0.107E-02    0.551E-02
RMM:   3    -0.379029371199E+03    0.12118E-04   -0.86109E-06  3844   0.365E-03    0.327E-02
RMM:   4    -0.379029363909E+03    0.72899E-05   -0.27115E-06  2422   0.206E-03    0.151E-02
RMM:   5    -0.379029362557E+03    0.13524E-05   -0.10878E-06  2057   0.147E-03    0.746E-03
RMM:   6    -0.379029362377E+03    0.17932E-06   -0.35059E-07  1983   0.922E-04
  45 F= -.41357947E+03 E0= -.41323836E+03  d E =0.417008E-06
       N       E                     dE             d eps       ncg     rms          rms(c)
DAV:   1    -0.379028782112E+03    0.58044E-03   -0.52312E-01  3920   0.124E+00    0.273E-01
RMM:   2    -0.379031086492E+03   -0.23044E-02   -0.18004E-02  3943   0.172E-01    0.395E-01
RMM:   3    -0.379030710064E+03    0.37643E-03   -0.23670E-03  3948   0.598E-02    0.444E-01
RMM:   4    -0.379029616737E+03    0.10933E-02   -0.44232E-04  3970   0.250E-02    0.231E-01
RMM:   5    -0.379029727190E+03   -0.11045E-03   -0.45875E-04  3942   0.258E-02    0.259E-01
RMM:   6    -0.379029547754E+03    0.17944E-03   -0.29818E-04  3943   0.215E-02    0.206E-01
RMM:   7    -0.379029358135E+03    0.18962E-03   -0.20980E-04  3941   0.188E-02    0.101E-01
RMM:   8    -0.379029322778E+03    0.35356E-04   -0.78761E-05  3944   0.114E-02    0.605E-02
RMM:   9    -0.379029308005E+03    0.14773E-04   -0.25182E-05  3927   0.660E-03    0.399E-02
RMM:  10    -0.379029298445E+03    0.95601E-05   -0.87944E-06  3885   0.389E-03    0.153E-02
RMM:  11    -0.379029297370E+03    0.10748E-05   -0.15119E-06  2097   0.170E-03    0.826E-03
RMM:  12    -0.379029297548E+03   -0.17764E-06   -0.79176E-07  2066   0.126E-03
  46 F= -.41358001E+03 E0= -.41323903E+03  d E =-.532048E-03
       N       E                     dE             d eps       ncg     rms          rms(c)
DAV:   1    -0.379029234811E+03    0.62559E-04   -0.31160E-03  4060   0.823E-02    0.142E-02
RMM:   2    -0.379029247740E+03   -0.12928E-04   -0.68837E-05  3946   0.127E-02    0.341E-02
RMM:   3    -0.379029244387E+03    0.33528E-05   -0.52467E-06  3119   0.309E-03    0.244E-02
RMM:   4    -0.379029242964E+03    0.14224E-05   -0.22736E-06  2308   0.202E-03    0.197E-02
RMM:   5    -0.379029242178E+03    0.78660E-06   -0.21138E-06  2235   0.204E-03
  47 F= -.41357999E+03 E0= -.41323902E+03  d E =0.127058E-04
       N       E                     dE             d eps       ncg     rms          rms(c)
DAV:   1    -0.379028204729E+03    0.10382E-02   -0.75588E-01  3920   0.146E+00    0.305E-01
RMM:   2    -0.379031360447E+03   -0.31557E-02   -0.27519E-02  3950   0.209E-01    0.413E-01
RMM:   3    -0.379030402213E+03    0.95823E-03   -0.29923E-03  3960   0.678E-02    0.397E-01
RMM:   4    -0.379030498167E+03   -0.95954E-04   -0.68944E-04  3965   0.308E-02    0.376E-01
RMM:   5    -0.379030037091E+03    0.46108E-03   -0.67929E-04  3944   0.302E-02    0.315E-01
RMM:   6    -0.379029629672E+03    0.40742E-03   -0.37409E-04  3945   0.242E-02    0.205E-01
RMM:   7    -0.379029453371E+03    0.17630E-03   -0.28084E-04  3943   0.216E-02    0.119E-01
RMM:   8    -0.379029417183E+03    0.36188E-04   -0.11758E-04  3946   0.139E-02    0.817E-02
RMM:   9    -0.379029384883E+03    0.32300E-04   -0.38709E-05  3936   0.821E-03    0.461E-02
RMM:  10    -0.379029370483E+03    0.14400E-04   -0.12826E-05  3915   0.468E-03    0.158E-02
RMM:  11    -0.379029369381E+03    0.11017E-05   -0.19887E-06  2130   0.195E-03    0.970E-03
RMM:  12    -0.379029369695E+03   -0.31429E-06   -0.11811E-06  2089   0.153E-03
  48 F= -.41357964E+03 E0= -.41323852E+03  d E =0.347504E-03
       N       E                     dE             d eps       ncg     rms          rms(c)
DAV:   1    -0.379028987073E+03    0.38231E-03   -0.20581E-01  3920   0.624E-01    0.678E-02
RMM:   2    -0.379029337099E+03   -0.35003E-03   -0.31618E-03  3956   0.946E-02    0.103E-01
RMM:   3    -0.379029393963E+03   -0.56864E-04   -0.22367E-04  4063   0.203E-02    0.123E-01
RMM:   4    -0.379029428167E+03   -0.34204E-04   -0.97804E-05  3971   0.114E-02    0.139E-01
RMM:   5    -0.379029292331E+03    0.13584E-03   -0.59378E-05  3948   0.941E-03    0.828E-02
RMM:   6    -0.379029268719E+03    0.23613E-04   -0.34076E-05  3935   0.749E-03    0.494E-02
RMM:   7    -0.379029266166E+03    0.25528E-05   -0.28187E-05  3930   0.682E-03    0.438E-02
RMM:   8    -0.379029260754E+03    0.54115E-05   -0.19546E-05  3925   0.568E-03    0.297E-02
RMM:   9    -0.379029254953E+03    0.58011E-05   -0.59034E-06  3631   0.322E-03    0.946E-03
RMM:  10    -0.379029254388E+03    0.56532E-06   -0.89390E-07  2049   0.136E-03
  49 F= -.41357974E+03 E0= -.41323860E+03  d E =-.909619E-04
       N       E                     dE             d eps       ncg     rms          rms(c)
DAV:   1    -0.379028468537E+03    0.78642E-03   -0.52298E-01  3920   0.124E+00    0.271E-01
RMM:   2    -0.379030751272E+03   -0.22827E-02   -0.17933E-02  3943   0.171E-01    0.398E-01
RMM:   3    -0.379029580336E+03    0.11709E-02   -0.22049E-03  3948   0.586E-02    0.325E-01
RMM:   4    -0.379029767767E+03   -0.18743E-03   -0.47755E-04  3966   0.261E-02    0.316E-01
RMM:   5    -0.379029723323E+03    0.44445E-04   -0.54259E-04  3943   0.262E-02    0.321E-01
RMM:   6    -0.379029205499E+03    0.51782E-03   -0.31399E-04  3942   0.218E-02    0.190E-01
RMM:   7    -0.379029046837E+03    0.15866E-03   -0.22018E-04  3943   0.193E-02    0.987E-02
RMM:   8    -0.379029014043E+03    0.32794E-04   -0.79162E-05  3942   0.115E-02    0.601E-02
RMM:   9    -0.379029000438E+03    0.13605E-04   -0.24602E-05  3933   0.654E-03    0.409E-02
RMM:  10    -0.379028990396E+03    0.10043E-04   -0.88232E-06  3886   0.391E-03    0.156E-02
RMM:  11    -0.379028989390E+03    0.10056E-05   -0.15309E-06  2088   0.172E-03    0.912E-03
RMM:  12    -0.379028989979E+03   -0.58942E-06   -0.79820E-07  2075   0.124E-03
  50 F= -.41358011E+03 E0= -.41323911E+03  d E =-.373272E-03
       N       E                     dE             d eps       ncg     rms          rms(c)
DAV:   1    -0.379029008181E+03   -0.18791E-04   -0.34768E-03  3976   0.919E-02    0.166E-02
RMM:   2    -0.379029021749E+03   -0.13568E-04   -0.82336E-05  3951   0.135E-02    0.343E-02
RMM:   3    -0.379029019250E+03    0.24989E-05   -0.57035E-06  3239   0.323E-03    0.239E-02
RMM:   4    -0.379029024067E+03   -0.48178E-05   -0.42762E-06  2885   0.249E-03    0.339E-02
RMM:   5    -0.379029017816E+03    0.62514E-05   -0.29672E-06  2442   0.231E-03    0.214E-02
RMM:   6    -0.379029016414E+03    0.14018E-05   -0.21403E-06  2220   0.214E-03    0.123E-02
RMM:   7    -0.379029016290E+03    0.12443E-06   -0.97572E-07  2070   0.142E-03
  51 F= -.41358011E+03 E0= -.41323913E+03  d E =-.611952E-06
       N       E                     dE             d eps       ncg     rms          rms(c)
DAV:   1    -0.379028501783E+03    0.51463E-03   -0.75383E-01  3920   0.146E+00    0.303E-01
RMM:   2    -0.379031545822E+03   -0.30440E-02   -0.27206E-02  3948   0.208E-01    0.403E-01
RMM:   3    -0.379029979833E+03    0.15660E-02   -0.27991E-03  3957   0.663E-02    0.272E-01
RMM:   4    -0.379030410739E+03   -0.43091E-03   -0.61192E-04  3965   0.311E-02    0.325E-01
RMM:   5    -0.379031608495E+03   -0.11978E-02   -0.76316E-04  3954   0.296E-02    0.486E-01
RMM:   6    -0.379029909179E+03    0.16993E-02   -0.47858E-04  3950   0.257E-02    0.201E-01
RMM:   7    -0.379029731201E+03    0.17798E-03   -0.28768E-04  3941   0.218E-02    0.118E-01
RMM:   8    -0.379029698190E+03    0.33011E-04   -0.11222E-04  3941   0.136E-02    0.810E-02
RMM:   9    -0.379029663959E+03    0.34232E-04   -0.36733E-05  3934   0.804E-03    0.447E-02
RMM:  10    -0.379029650899E+03    0.13059E-04   -0.11526E-05  3910   0.443E-03    0.167E-02
RMM:  11    -0.379029649805E+03    0.10944E-05   -0.18885E-06  2126   0.190E-03    0.107E-02
RMM:  12    -0.379029650046E+03   -0.24078E-06   -0.11240E-06  2096   0.148E-03
  52 F= -.41357992E+03 E0= -.41323875E+03  d E =0.191784E-03
       N       E                     dE             d eps       ncg     rms          rms(c)
DAV:   1    -0.379029749497E+03   -0.99693E-04   -0.21126E-01  3920   0.635E-01    0.678E-02
RMM:   2    -0.379030099482E+03   -0.34998E-03   -0.33075E-03  3952   0.963E-02    0.934E-02
RMM:   3    -0.379030083741E+03    0.15741E-04   -0.22023E-04  4031   0.206E-02    0.782E-02
RMM:   4    -0.379030293868E+03   -0.21013E-03   -0.96042E-05  3963   0.115E-02    0.172E-01
RMM:   5    -0.379030074478E+03    0.21939E-03   -0.61632E-05  3943   0.888E-03    0.859E-02
RMM:   6    -0.379030039083E+03    0.35395E-04   -0.29676E-05  3926   0.704E-03    0.435E-02
RMM:   7    -0.379030037058E+03    0.20253E-05   -0.27375E-05  3934   0.668E-03    0.400E-02
RMM:   8    -0.379030033037E+03    0.40204E-05   -0.18802E-05  3920   0.561E-03    0.300E-02
RMM:   9    -0.379030027857E+03    0.51809E-05   -0.56457E-06  3498   0.314E-03    0.102E-02
RMM:  10    -0.379030027082E+03    0.77453E-06   -0.10431E-06  2053   0.148E-03
  53 F= -.41358003E+03 E0= -.41323883E+03  d E =-.112416E-03
       N       E                     dE             d eps       ncg     rms          rms(c)
DAV:   1    -0.379029083720E+03    0.94414E-03   -0.52335E-01  3920   0.124E+00    0.271E-01
RMM:   2    -0.379031291215E+03   -0.22075E-02   -0.17981E-02  3943   0.171E-01    0.385E-01
RMM:   3    -0.379029851302E+03    0.14399E-02   -0.21305E-03  3948   0.577E-02    0.239E-01
RMM:   4    -0.379030364327E+03   -0.51303E-03   -0.45498E-04  3961   0.261E-02    0.311E-01
RMM:   5    -0.379030795225E+03   -0.43090E-03   -0.59703E-04  3946   0.264E-02    0.384E-01
RMM:   6    -0.379029871008E+03    0.92422E-03   -0.36445E-04  3946   0.230E-02    0.209E-01
RMM:   7    -0.379029679521E+03    0.19149E-03   -0.21014E-04  3945   0.187E-02    0.103E-01
RMM:   8    -0.379029641453E+03    0.38068E-04   -0.79748E-05  3944   0.115E-02    0.598E-02
RMM:   9    -0.379029626810E+03    0.14642E-04   -0.24522E-05  3931   0.654E-03    0.399E-02
RMM:  10    -0.379029617327E+03    0.94830E-05   -0.83014E-06  3875   0.378E-03    0.154E-02
RMM:  11    -0.379029616364E+03    0.96362E-06   -0.15358E-06  2090   0.171E-03
  54 F= -.41358026E+03 E0= -.41323920E+03  d E =-.230004E-03
       N       E                     dE             d eps       ncg     rms          rms(c)
DAV:   1    -0.379029601982E+03    0.15346E-04   -0.32244E-03  4032   0.778E-02    0.158E-02
RMM:   2    -0.379029637691E+03   -0.35709E-04   -0.69050E-05  3947   0.131E-02    0.653E-02
RMM:   3    -0.379029611490E+03    0.26201E-04   -0.87094E-06  3846   0.369E-03    0.296E-02
RMM:   4    -0.379029609920E+03    0.15704E-05   -0.35708E-06  2595   0.247E-03    0.239E-02
RMM:   5    -0.379029608219E+03    0.17010E-05   -0.21036E-06  2204   0.204E-03    0.194E-02
RMM:   6    -0.379029607440E+03    0.77915E-06   -0.19834E-06  2197   0.200E-03
  55 F= -.41358025E+03 E0= -.41323919E+03  d E =0.111998E-04
       N       E                     dE             d eps       ncg     rms          rms(c)
DAV:   1    -0.379029910801E+03   -0.30258E-03   -0.72470E-01  3920   0.143E+00    0.284E-01
RMM:   2    -0.379032901048E+03   -0.29902E-02   -0.26121E-02  3949   0.204E-01    0.390E-01
RMM:   3    -0.379031408382E+03    0.14927E-02   -0.26373E-03  3960   0.636E-02    0.265E-01
RMM:   4    -0.379032208492E+03   -0.80011E-03   -0.56637E-04  3971   0.285E-02    0.374E-01
RMM:   5    -0.379031816894E+03    0.39160E-03   -0.61720E-04  3949   0.276E-02    0.320E-01
RMM:   6    -0.379031271310E+03    0.54558E-03   -0.32601E-04  3952   0.224E-02    0.200E-01
RMM:   7    -0.379031114664E+03    0.15665E-03   -0.19583E-04  3947   0.182E-02    0.112E-01
RMM:   8    -0.379031088436E+03    0.26228E-04   -0.97181E-05  3944   0.127E-02    0.774E-02
RMM:   9    -0.379031059468E+03    0.28968E-04   -0.34110E-05  3937   0.772E-03    0.454E-02
RMM:  10    -0.379031046441E+03    0.13027E-04   -0.11047E-05  3911   0.434E-03    0.172E-02
RMM:  11    -0.379031045166E+03    0.12746E-05   -0.17703E-06  2097   0.184E-03    0.107E-02
RMM:  12    -0.379031044778E+03    0.38777E-06   -0.10416E-06  2077   0.143E-03
  56 F= -.41358024E+03 E0= -.41323898E+03  d E =0.803067E-05
