       N       E                     dE             d eps       ncg     rms          rms(c)
DAV:   1     0.432729825593E+04    0.43273E+04   -0.26923E+05  3920   0.127E+03
DAV:   2    -0.663533736255E+02   -0.43937E+04   -0.40575E+04  4620   0.280E+02
DAV:   3    -0.394121352433E+03   -0.32777E+03   -0.29609E+03  4648   0.704E+01
DAV:   4    -0.409973729395E+03   -0.15852E+02   -0.14849E+02  5152   0.142E+01
DAV:   5    -0.410386276367E+03   -0.41255E+00   -0.40978E+00  4816   0.236E+00    0.924E+01
RMM:   6    -0.411610378310E+03   -0.12241E+01   -0.82137E+01  3937   0.141E+01    0.755E+01
RMM:   7    -0.471769334510E+03   -0.60159E+02   -0.20336E+02  3939   0.142E+01    0.735E+01
RMM:   8    -0.663181854108E+03   -0.19141E+03   -0.25112E+02  3996   0.149E+01    0.113E+02
RMM:   9    -0.425202843665E+03    0.23798E+03   -0.97051E+01  3928   0.107E+01    0.439E+01
RMM:  10    -0.402981696410E+03    0.22221E+02   -0.40055E+01  3928   0.781E+00    0.400E+01
RMM:  11    -0.389455857994E+03    0.13526E+02   -0.24104E+01  3936   0.581E+00    0.289E+01
RMM:  12    -0.383085557031E+03    0.63703E+01   -0.46732E+00  3928   0.276E+00    0.153E+01
RMM:  13    -0.382341878926E+03    0.74368E+00   -0.20485E+00  3942   0.177E+00    0.123E+01
RMM:  14    -0.381445130925E+03    0.89675E+00   -0.10406E+00  3940   0.124E+00    0.703E+00
RMM:  15    -0.381137815820E+03    0.30732E+00   -0.32862E-01  3943   0.726E-01    0.459E+00
RMM:  16    -0.381243140192E+03   -0.10532E+00   -0.31766E-01  3944   0.741E-01    0.654E+00
RMM:  17    -0.381116968824E+03    0.12617E+00   -0.18554E-01  3947   0.569E-01    0.498E+00
RMM:  18    -0.380997763694E+03    0.11921E+00   -0.13022E-01  3942   0.477E-01    0.278E+00
RMM:  19    -0.380973696314E+03    0.24067E-01   -0.52714E-02  3943   0.298E-01    0.185E+00
RMM:  20    -0.380956705195E+03    0.16991E-01   -0.11628E-02  3946   0.136E-01    0.103E+00
RMM:  21    -0.380950102171E+03    0.66030E-02   -0.34453E-03  3942   0.759E-02    0.715E-01
RMM:  22    -0.380947558365E+03    0.25438E-02   -0.25921E-03  3940   0.640E-02    0.608E-01
RMM:  23    -0.380947552396E+03    0.59683E-05   -0.26956E-03  3942   0.651E-02    0.465E-01
RMM:  24    -0.380947255080E+03    0.29732E-03   -0.13587E-03  3945   0.465E-02    0.331E-01
RMM:  25    -0.380947132285E+03    0.12280E-03   -0.47670E-04  3946   0.273E-02    0.210E-01
RMM:  26    -0.380947359427E+03   -0.22714E-03   -0.26681E-04  3940   0.204E-02    0.162E-01
RMM:  27    -0.380947601212E+03   -0.24178E-03   -0.15537E-04  3946   0.154E-02    0.103E-01
RMM:  28    -0.380947829979E+03   -0.22877E-03   -0.87254E-05  3943   0.111E-02    0.734E-02
RMM:  29    -0.380948255060E+03   -0.42508E-03   -0.14008E-04  3937   0.136E-02    0.365E-02
RMM:  30    -0.380948401431E+03   -0.14637E-03   -0.31939E-05  4023   0.622E-03    0.287E-02
RMM:  31    -0.380948596388E+03   -0.19496E-03   -0.20913E-05  3907   0.535E-03    0.225E-02
RMM:  32    -0.380948742841E+03   -0.14645E-03   -0.13067E-05  3727   0.403E-03    0.177E-02
RMM:  33    -0.380948936145E+03   -0.19330E-03   -0.15289E-05  3637   0.401E-03    0.266E-02
RMM:  34    -0.380949046663E+03   -0.11052E-03   -0.80544E-06  3132   0.278E-03    0.226E-02
RMM:  35    -0.380949131000E+03   -0.84338E-04   -0.53212E-06  2867   0.227E-03    0.104E-02
RMM:  36    -0.380949204057E+03   -0.73057E-04   -0.43747E-06  2761   0.197E-03    0.656E-03
RMM:  37    -0.380949281027E+03   -0.76970E-04   -0.47988E-06  2862   0.192E-03    0.622E-03
RMM:  38    -0.380949323234E+03   -0.42207E-04   -0.27641E-06  2572   0.139E-03    0.742E-03
RMM:  39    -0.380949343198E+03   -0.19964E-04   -0.95681E-07  2139   0.882E-04    0.588E-03
RMM:  40    -0.380949358290E+03   -0.15092E-04   -0.78055E-07  2174   0.812E-04    0.626E-03
RMM:  41    -0.380949359214E+03   -0.92378E-06   -0.21765E-07  1536   0.531E-04
   1 F= -.41694785E+03 E0= -.41662406E+03  d E =-.416948E+03
       N       E                     dE             d eps       ncg     rms          rms(c)
DAV:   1    -0.380952173870E+03   -0.28156E-02   -0.52187E-01  3962   0.127E+00    0.266E-01
RMM:   2    -0.380955761242E+03   -0.35874E-02   -0.15061E-02  3946   0.158E-01    0.544E-01
RMM:   3    -0.380961445909E+03   -0.56847E-02   -0.34859E-03  3956   0.657E-02    0.102E+00
RMM:   4    -0.380952512104E+03    0.89338E-02   -0.14250E-03  3937   0.456E-02    0.181E-01
RMM:   5    -0.380952577478E+03   -0.65374E-04   -0.36776E-04  3941   0.243E-02    0.186E-01
RMM:   6    -0.380952647052E+03   -0.69574E-04   -0.26303E-04  3948   0.204E-02    0.203E-01
RMM:   7    -0.380952457645E+03    0.18941E-03   -0.16670E-04  3942   0.168E-02    0.879E-02
RMM:   8    -0.380952430415E+03    0.27231E-04   -0.65403E-05  3942   0.103E-02    0.476E-02
RMM:   9    -0.380952420744E+03    0.96706E-05   -0.16683E-05  3911   0.543E-03    0.311E-02
RMM:  10    -0.380952416184E+03    0.45596E-05   -0.50952E-06  3238   0.301E-03    0.157E-02
RMM:  11    -0.380952415771E+03    0.41378E-06   -0.12553E-06  2102   0.158E-03
   2 F= -.41694982E+03 E0= -.41662601E+03  d E =-.196647E-02
       N       E                     dE             d eps       ncg     rms          rms(c)
DAV:   1    -0.380951762865E+03    0.65332E-03   -0.11122E-02  4032   0.144E-01    0.192E-02
RMM:   2    -0.380951842304E+03   -0.79439E-04   -0.18244E-04  3953   0.225E-02    0.958E-02
RMM:   3    -0.380951791618E+03    0.50687E-04   -0.24047E-05  3961   0.626E-03    0.425E-02
RMM:   4    -0.380951780784E+03    0.10834E-04   -0.55672E-06  3286   0.303E-03    0.222E-02
RMM:   5    -0.380951779665E+03    0.11184E-05   -0.25880E-06  2283   0.229E-03    0.179E-02
RMM:   6    -0.380951779885E+03   -0.21992E-06   -0.27252E-06  2296   0.234E-03
   3 F= -.41694962E+03 E0= -.41662576E+03  d E =0.198868E-03
       N       E                     dE             d eps       ncg     rms          rms(c)
DAV:   1    -0.380957299626E+03   -0.55200E-02   -0.72425E-01  3920   0.145E+00    0.355E-01
RMM:   2    -0.380960678237E+03   -0.33786E-02   -0.28598E-02  3955   0.218E-01    0.466E-01
RMM:   3    -0.380961237140E+03   -0.55890E-03   -0.34706E-03  3968   0.735E-02    0.595E-01
RMM:   4    -0.380959077847E+03    0.21593E-02   -0.86506E-04  3960   0.339E-02    0.310E-01
RMM:   5    -0.380959473938E+03   -0.39609E-03   -0.98783E-04  3943   0.382E-02    0.400E-01
RMM:   6    -0.380958815440E+03    0.65850E-03   -0.61304E-04  3943   0.313E-02    0.230E-01
RMM:   7    -0.380958560718E+03    0.25472E-03   -0.41346E-04  3943   0.257E-02    0.132E-01
RMM:   8    -0.380958505845E+03    0.54873E-04   -0.13115E-04  3943   0.145E-02    0.827E-02
RMM:   9    -0.380958465619E+03    0.40226E-04   -0.46599E-05  3931   0.899E-03    0.413E-02
RMM:  10    -0.380958454382E+03    0.11237E-04   -0.10515E-05  3904   0.421E-03    0.142E-02
RMM:  11    -0.380958453638E+03    0.74399E-06   -0.25362E-06  2270   0.214E-03
   4 F= -.41695290E+03 E0= -.41662912E+03  d E =-.328355E-02
       N       E                     dE             d eps       ncg     rms          rms(c)
DAV:   1    -0.381003198992E+03   -0.44745E-01   -0.17737E+01  3920   0.598E+00    0.159E+00
RMM:   2    -0.381074253947E+03   -0.71055E-01   -0.42011E-01  3952   0.997E-01    0.313E+00
RMM:   3    -0.381044112443E+03    0.30142E-01   -0.20800E-02  4039   0.205E-01    0.219E+00
RMM:   4    -0.381206702693E+03   -0.16259E+00   -0.36852E-02  3951   0.208E-01    0.455E+00
RMM:   5    -0.381096175453E+03    0.11053E+00   -0.67095E-02  3942   0.290E-01    0.333E+00
RMM:   6    -0.381037666586E+03    0.58509E-01   -0.25137E-02  3945   0.199E-01    0.131E+00
RMM:   7    -0.381030487063E+03    0.71795E-02   -0.12186E-02  3943   0.139E-01    0.752E-01
RMM:   8    -0.381029048656E+03    0.14384E-02   -0.40104E-03  3941   0.814E-02    0.492E-01
RMM:   9    -0.381027658034E+03    0.13906E-02   -0.11602E-03  3946   0.446E-02    0.247E-01
RMM:  10    -0.381027320763E+03    0.33727E-03   -0.33543E-04  3943   0.231E-02    0.150E-01
RMM:  11    -0.381027211237E+03    0.10953E-03   -0.29263E-04  3941   0.219E-02    0.113E-01
RMM:  12    -0.381027155811E+03    0.55426E-04   -0.16232E-04  3943   0.156E-02    0.872E-02
RMM:  13    -0.381027155923E+03   -0.11195E-06   -0.47354E-05  3948   0.885E-03    0.861E-02
RMM:  14    -0.381027126717E+03    0.29206E-04   -0.28122E-05  3930   0.690E-03    0.451E-02
RMM:  15    -0.381027116756E+03    0.99608E-05   -0.12880E-05  3917   0.468E-03    0.129E-02
RMM:  16    -0.381027120666E+03   -0.39101E-05   -0.27771E-06  2355   0.237E-03    0.744E-03
RMM:  17    -0.381027125771E+03   -0.51048E-05   -0.10469E-06  2165   0.154E-03    0.613E-03
RMM:  18    -0.381027130064E+03   -0.42932E-05   -0.46313E-07  2120   0.959E-04    0.513E-03
RMM:  19    -0.381027133920E+03   -0.38559E-05   -0.27840E-07  2101   0.699E-04    0.414E-03
RMM:  20    -0.381027139769E+03   -0.58486E-05   -0.27843E-07  2106   0.649E-04    0.317E-03
RMM:  21    -0.381027143672E+03   -0.39034E-05   -0.13668E-07  1301   0.474E-04    0.192E-03
RMM:  22    -0.381027146633E+03   -0.29603E-05   -0.94022E-08  1174   0.419E-04    0.166E-03
RMM:  23    -0.381027153119E+03   -0.64862E-05   -0.27332E-07  1678   0.518E-04    0.147E-03
RMM:  24    -0.381027156236E+03   -0.31169E-05   -0.14571E-07  1189   0.398E-04    0.103E-03
RMM:  25    -0.381027160364E+03   -0.41280E-05   -0.23662E-07  1441   0.449E-04    0.815E-04
RMM:  26    -0.381027162329E+03   -0.19650E-05   -0.93835E-08   881   0.371E-04    0.704E-04
RMM:  27    -0.381027164275E+03   -0.19460E-05   -0.16232E-07  1294   0.411E-04    0.603E-04
RMM:  28    -0.381027165034E+03   -0.75922E-06   -0.49309E-08   699   0.324E-04
   5 F= -.41697617E+03 E0= -.41665254E+03  d E =-.232731E-01
       N       E                     dE             d eps       ncg     rms          rms(c)
DAV:   1    -0.381029197885E+03   -0.20336E-02   -0.52327E-01  3920   0.126E+00    0.285E-01
RMM:   2    -0.381031557057E+03   -0.23592E-02   -0.18908E-02  3944   0.174E-01    0.396E-01
RMM:   3    -0.381030518371E+03    0.10387E-02   -0.23866E-03  3952   0.605E-02    0.349E-01
RMM:   4    -0.381030133852E+03    0.38452E-03   -0.37770E-04  3962   0.231E-02    0.247E-01
RMM:   5    -0.381030256700E+03   -0.12285E-03   -0.48445E-04  3942   0.258E-02    0.275E-01
RMM:   6    -0.381029982987E+03    0.27371E-03   -0.31724E-04  3944   0.222E-02    0.212E-01
RMM:   7    -0.381029787627E+03    0.19536E-03   -0.20094E-04  3942   0.183E-02    0.109E-01
RMM:   8    -0.381029742248E+03    0.45379E-04   -0.77127E-05  3942   0.112E-02    0.557E-02
RMM:   9    -0.381029724500E+03    0.17748E-04   -0.23367E-05  3925   0.641E-03    0.322E-02
RMM:  10    -0.381029718634E+03    0.58658E-05   -0.57980E-06  3460   0.317E-03    0.148E-02
RMM:  11    -0.381029717886E+03    0.74858E-06   -0.11883E-06  2083   0.152E-03
   6 F= -.41697806E+03 E0= -.41665437E+03  d E =-.188938E-02
       N       E                     dE             d eps       ncg     rms          rms(c)
DAV:   1    -0.381027691147E+03    0.20275E-02   -0.37760E-02  3976   0.303E-01    0.108E-01
RMM:   2    -0.381028181541E+03   -0.49039E-03   -0.13780E-03  3950   0.505E-02    0.271E-01
RMM:   3    -0.381027842955E+03    0.33859E-03   -0.64770E-05  3974   0.108E-02    0.165E-01
RMM:   4    -0.381028085586E+03   -0.24263E-03   -0.66441E-05  3933   0.976E-03    0.220E-01
RMM:   5    -0.381027999744E+03    0.85842E-04   -0.15759E-04  3942   0.154E-02    0.208E-01
RMM:   6    -0.381027820618E+03    0.17913E-03   -0.10390E-04  3931   0.127E-02    0.103E-01
RMM:   7    -0.381027767649E+03    0.52969E-04   -0.49400E-05  3924   0.876E-03    0.463E-02
RMM:   8    -0.381027762154E+03    0.54955E-05   -0.16206E-05  3918   0.513E-03    0.263E-02
RMM:   9    -0.381027758404E+03    0.37501E-05   -0.41990E-06  2817   0.274E-03    0.126E-02
RMM:  10    -0.381027757700E+03    0.70359E-06   -0.90491E-07  2122   0.136E-03
   7 F= -.41697579E+03 E0= -.41665211E+03  d E =0.227781E-02
       N       E                     dE             d eps       ncg     rms          rms(c)
DAV:   1    -0.381034000886E+03   -0.62425E-02   -0.74063E-01  3920   0.145E+00    0.279E-01
RMM:   2    -0.381039644773E+03   -0.56439E-02   -0.25926E-02  3950   0.209E-01    0.661E-01
RMM:   3    -0.381043067305E+03   -0.34225E-02   -0.36863E-03  3967   0.696E-02    0.944E-01
RMM:   4    -0.381035460527E+03    0.76068E-02   -0.19792E-03  3939   0.540E-02    0.226E-01
RMM:   5    -0.381035199183E+03    0.26134E-03   -0.45153E-04  3945   0.274E-02    0.135E-01
RMM:   6    -0.381035268244E+03   -0.69061E-04   -0.23802E-04  3943   0.198E-02    0.164E-01
RMM:   7    -0.381035163615E+03    0.10463E-03   -0.12621E-04  3945   0.147E-02    0.942E-02
RMM:   8    -0.381035146184E+03    0.17431E-04   -0.85976E-05  3940   0.119E-02    0.613E-02
RMM:   9    -0.381035121939E+03    0.24246E-04   -0.28679E-05  3927   0.725E-03    0.284E-02
RMM:  10    -0.381035116970E+03    0.49682E-05   -0.51597E-06  3285   0.308E-03    0.143E-02
RMM:  11    -0.381035116305E+03    0.66510E-06   -0.13031E-06  2098   0.157E-03
   8 F= -.41697937E+03 E0= -.41665573E+03  d E =-.358696E-02
       N       E                     dE             d eps       ncg     rms          rms(c)
DAV:   1    -0.381110867707E+03   -0.75751E-01   -0.50373E+01  3920   0.956E+00    0.120E+00
RMM:   2    -0.381377705161E+03   -0.26684E+00   -0.77136E-01  3932   0.148E+00    0.476E+00
RMM:   3    -0.381182502532E+03    0.19520E+00   -0.58874E-02  3986   0.333E-01    0.984E-01
RMM:   4    -0.381193288069E+03   -0.10786E-01   -0.24637E-02  3942   0.201E-01    0.177E+00
RMM:   5    -0.381176524543E+03    0.16764E-01   -0.11684E-02  3947   0.139E-01    0.105E+00
RMM:   6    -0.381175969670E+03    0.55487E-03   -0.94377E-03  3943   0.124E-01    0.970E-01
RMM:   7    -0.381175900278E+03    0.69392E-04   -0.81689E-03  3946   0.115E-01    0.891E-01
RMM:   8    -0.381171513192E+03    0.43871E-02   -0.34235E-03  3949   0.754E-02    0.495E-01
RMM:   9    -0.381170144195E+03    0.13690E-02   -0.96932E-04  3946   0.395E-02    0.273E-01
RMM:  10    -0.381169665023E+03    0.47917E-03   -0.39358E-04  3945   0.256E-02    0.171E-01
RMM:  11    -0.381169464365E+03    0.20066E-03   -0.21112E-04  3950   0.177E-02    0.108E-01
RMM:  12    -0.381169401969E+03    0.62396E-04   -0.79828E-05  3953   0.110E-02    0.569E-02
RMM:  13    -0.381169398287E+03    0.36823E-05   -0.39359E-05  3928   0.806E-03    0.538E-02
RMM:  14    -0.381169387937E+03    0.10350E-04   -0.31726E-05  3926   0.731E-03    0.269E-02
RMM:  15    -0.381169386013E+03    0.19243E-05   -0.92510E-06  3903   0.404E-03    0.138E-02
RMM:  16    -0.381169386110E+03   -0.97025E-07   -0.19646E-06  2213   0.197E-03
   9 F= -.41702375E+03 E0= -.41670032E+03  d E =-.443773E-01
       N       E                     dE             d eps       ncg     rms          rms(c)
DAV:   1    -0.381169996099E+03   -0.61009E-03   -0.52277E-01  3920   0.127E+00    0.280E-01
RMM:   2    -0.381172796072E+03   -0.28000E-02   -0.18882E-02  3945   0.174E-01    0.437E-01
RMM:   3    -0.381173786582E+03   -0.99051E-03   -0.29643E-03  3955   0.651E-02    0.629E-01
RMM:   4    -0.381170647993E+03    0.31386E-02   -0.57424E-04  3958   0.290E-02    0.190E-01
RMM:   5    -0.381170722497E+03   -0.74505E-04   -0.33997E-04  3942   0.231E-02    0.186E-01
RMM:   6    -0.381170689232E+03    0.33266E-04   -0.25095E-04  3945   0.201E-02    0.178E-01
RMM:   7    -0.381170569863E+03    0.11937E-03   -0.13923E-04  3945   0.153E-02    0.112E-01
RMM:   8    -0.381170524934E+03    0.44929E-04   -0.68333E-05  3939   0.105E-02    0.536E-02
RMM:   9    -0.381170508799E+03    0.16134E-04   -0.22374E-05  3924   0.630E-03    0.281E-02
RMM:  10    -0.381170504449E+03    0.43508E-05   -0.50394E-06  3248   0.300E-03    0.146E-02
RMM:  11    -0.381170503804E+03    0.64448E-06   -0.10792E-06  2101   0.144E-03
  10 F= -.41702427E+03 E0= -.41670079E+03  d E =-.520390E-03
       N       E                     dE             d eps       ncg     rms          rms(c)
DAV:   1    -0.381170394205E+03    0.11024E-03   -0.71355E-03  4032   0.132E-01    0.266E-02
RMM:   2    -0.381170448578E+03   -0.54373E-04   -0.19243E-04  3953   0.198E-02    0.727E-02
RMM:   3    -0.381170417748E+03    0.30830E-04   -0.15721E-05  3933   0.493E-03    0.374E-02
RMM:   4    -0.381170426241E+03   -0.84930E-05   -0.11557E-05  3887   0.408E-03    0.489E-02
RMM:   5    -0.381170413655E+03    0.12585E-04   -0.80796E-06  3840   0.362E-03    0.294E-02
RMM:   6    -0.381170410264E+03    0.33913E-05   -0.51547E-06  3310   0.296E-03    0.168E-02
RMM:   7    -0.381170409603E+03    0.66127E-06   -0.16514E-06  2151   0.178E-03
  11 F= -.41702417E+03 E0= -.41670070E+03  d E =0.101401E-03
       N       E                     dE             d eps       ncg     rms          rms(c)
DAV:   1    -0.381172738551E+03   -0.23283E-02   -0.66124E-01  3920   0.140E+00    0.272E-01
RMM:   2    -0.381177601913E+03   -0.48634E-02   -0.24898E-02  3949   0.200E-01    0.647E-01
RMM:   3    -0.381177998158E+03   -0.39624E-03   -0.27219E-03  3965   0.625E-02    0.693E-01
RMM:   4    -0.381174603550E+03    0.33946E-02   -0.13203E-03  3948   0.432E-02    0.296E-01
RMM:   5    -0.381174122966E+03    0.48058E-03   -0.71873E-04  3942   0.336E-02    0.234E-01
RMM:   6    -0.381173943518E+03    0.17945E-03   -0.23271E-04  3946   0.200E-02    0.152E-01
RMM:   7    -0.381173875518E+03    0.68000E-04   -0.11203E-04  3945   0.140E-02    0.105E-01
RMM:   8    -0.381173863809E+03    0.11709E-04   -0.88769E-05  3941   0.122E-02    0.715E-02
RMM:   9    -0.381173837766E+03    0.26043E-04   -0.38288E-05  3932   0.814E-03    0.405E-02
RMM:  10    -0.381173829128E+03    0.86381E-05   -0.89259E-06  3889   0.392E-03    0.156E-02
RMM:  11    -0.381173828589E+03    0.53838E-06   -0.17879E-06  2172   0.186E-03
  12 F= -.41702710E+03 E0= -.41670367E+03  d E =-.292663E-02
       N       E                     dE             d eps       ncg     rms          rms(c)
DAV:   1    -0.381180344469E+03   -0.65153E-02   -0.23129E+00  3920   0.236E+00    0.671E-01
RMM:   2    -0.381191217560E+03   -0.10873E-01   -0.66740E-02  3952   0.369E-01    0.123E+00
RMM:   3    -0.381186514077E+03    0.47035E-02   -0.30339E-03  3997   0.763E-02    0.768E-01
RMM:   4    -0.381208113592E+03   -0.21600E-01   -0.55873E-03  3951   0.822E-02    0.170E+00
RMM:   5    -0.381191236989E+03    0.16877E-01   -0.66441E-03  3942   0.951E-02    0.111E+00
RMM:   6    -0.381187108712E+03    0.41283E-02   -0.35933E-03  3948   0.750E-02    0.679E-01
RMM:   7    -0.381185045868E+03    0.20628E-02   -0.20391E-03  3942   0.565E-02    0.317E-01
RMM:   8    -0.381184797706E+03    0.24816E-03   -0.73137E-04  3942   0.348E-02    0.192E-01
RMM:   9    -0.381184577425E+03    0.22028E-03   -0.19582E-04  3947   0.183E-02    0.710E-02
RMM:  10    -0.381184557664E+03    0.19761E-04   -0.30884E-05  3949   0.698E-03    0.444E-02
RMM:  11    -0.381184560770E+03   -0.31054E-05   -0.34816E-05  3933   0.736E-03    0.330E-02
RMM:  12    -0.381184565114E+03   -0.43440E-05   -0.22664E-05  3935   0.624E-03    0.194E-02
RMM:  13    -0.381184570719E+03   -0.56054E-05   -0.72498E-06  3791   0.352E-03    0.179E-02
RMM:  14    -0.381184573206E+03   -0.24864E-05   -0.21791E-06  2274   0.208E-03    0.134E-02
RMM:  15    -0.381184574331E+03   -0.11249E-05   -0.80287E-07  2135   0.131E-03    0.470E-03
RMM:  16    -0.381184576665E+03   -0.23342E-05   -0.31010E-07  2102   0.780E-04    0.292E-03
RMM:  17    -0.381184581177E+03   -0.45126E-05   -0.25473E-07  2022   0.602E-04    0.253E-03
RMM:  18    -0.381184584236E+03   -0.30585E-05   -0.12367E-07  1132   0.439E-04    0.212E-03
RMM:  19    -0.381184585940E+03   -0.17042E-05   -0.82397E-08  1069   0.406E-04    0.178E-03
RMM:  20    -0.381184588489E+03   -0.25488E-05   -0.15384E-07  1443   0.447E-04    0.151E-03
RMM:  21    -0.381184591183E+03   -0.26944E-05   -0.15919E-07  1424   0.426E-04    0.773E-04
RMM:  22    -0.381184592812E+03   -0.16288E-05   -0.81000E-08   886   0.355E-04    0.382E-04
RMM:  23    -0.381184595509E+03   -0.26974E-05   -0.25692E-07  1596   0.484E-04    0.551E-04
RMM:  24    -0.381184596972E+03   -0.14624E-05   -0.14305E-07  1079   0.378E-04    0.683E-04
RMM:  25    -0.381184598255E+03   -0.12831E-05   -0.13726E-07  1138   0.397E-04    0.651E-04
RMM:  26    -0.381184598611E+03   -0.35615E-06   -0.40144E-08   648   0.329E-04
  13 F= -.41703339E+03 E0= -.41671005E+03  d E =-.629010E-02
       N       E                     dE             d eps       ncg     rms          rms(c)
DAV:   1    -0.381185175710E+03   -0.57745E-03   -0.52185E-01  3920   0.127E+00    0.274E-01
RMM:   2    -0.381188176832E+03   -0.30011E-02   -0.18896E-02  3948   0.175E-01    0.459E-01
RMM:   3    -0.381190285558E+03   -0.21087E-02   -0.31297E-03  3962   0.660E-02    0.733E-01
RMM:   4    -0.381185816040E+03    0.44695E-02   -0.74719E-04  3950   0.327E-02    0.183E-01
RMM:   5    -0.381185830134E+03   -0.14094E-04   -0.32979E-04  3942   0.229E-02    0.162E-01
RMM:   6    -0.381185841230E+03   -0.11097E-04   -0.22740E-04  3944   0.192E-02    0.165E-01
RMM:   7    -0.381185743219E+03    0.98011E-04   -0.12573E-04  3946   0.146E-02    0.107E-01
RMM:   8    -0.381185703347E+03    0.39872E-04   -0.65738E-05  3939   0.103E-02    0.517E-02
RMM:   9    -0.381185686650E+03    0.16697E-04   -0.21299E-05  3922   0.617E-03    0.236E-02
RMM:  10    -0.381185683460E+03    0.31906E-05   -0.45049E-06  3043   0.288E-03    0.130E-02
RMM:  11    -0.381185683116E+03    0.34309E-06   -0.91484E-07  2089   0.133E-03
  14 F= -.41703392E+03 E0= -.41671056E+03  d E =-.535977E-03
       N       E                     dE             d eps       ncg     rms          rms(c)
DAV:   1    -0.381185274120E+03    0.40934E-03   -0.57911E-03  4060   0.115E-01    0.300E-02
RMM:   2    -0.381185309825E+03   -0.35705E-04   -0.15393E-04  3950   0.183E-02    0.678E-02
RMM:   3    -0.381185291196E+03    0.18630E-04   -0.10311E-05  3885   0.430E-03    0.359E-02
RMM:   4    -0.381185318885E+03   -0.27690E-04   -0.11844E-05  3839   0.392E-03    0.661E-02
RMM:   5    -0.381185298703E+03    0.20182E-04   -0.11359E-05  3897   0.419E-03    0.483E-02
RMM:   6    -0.381185289199E+03    0.95038E-05   -0.86710E-06  3856   0.371E-03    0.254E-02
RMM:   7    -0.381185286480E+03    0.27195E-05   -0.33604E-06  2550   0.242E-03    0.125E-02
RMM:   8    -0.381185285951E+03    0.52930E-06   -0.11963E-06  2116   0.162E-03
  15 F= -.41703374E+03 E0= -.41671036E+03  d E =0.185505E-03
       N       E                     dE             d eps       ncg     rms          rms(c)
DAV:   1    -0.381189602806E+03   -0.43163E-02   -0.67495E-01  3920   0.139E+00    0.298E-01
RMM:   2    -0.381192969535E+03   -0.33667E-02   -0.25300E-02  3958   0.205E-01    0.436E-01
RMM:   3    -0.381193930368E+03   -0.96083E-03   -0.34341E-03  3979   0.711E-02    0.629E-01
RMM:   4    -0.381190873373E+03    0.30570E-02   -0.55769E-04  3958   0.291E-02    0.205E-01
RMM:   5    -0.381191098982E+03   -0.22561E-03   -0.41597E-04  3943   0.255E-02    0.239E-01
RMM:   6    -0.381190963649E+03    0.13533E-03   -0.33409E-04  3945   0.229E-02    0.221E-01
RMM:   7    -0.381190774637E+03    0.18901E-03   -0.19225E-04  3945   0.179E-02    0.129E-01
RMM:   8    -0.381190717371E+03    0.57266E-04   -0.92254E-05  3942   0.122E-02    0.625E-02
RMM:   9    -0.381190689807E+03    0.27564E-04   -0.36182E-05  3931   0.803E-03    0.256E-02
RMM:  10    -0.381190686051E+03    0.37563E-05   -0.62782E-06  3542   0.329E-03    0.137E-02
RMM:  11    -0.381190686199E+03   -0.14793E-06   -0.15113E-06  2165   0.166E-03
  16 F= -.41703516E+03 E0= -.41671190E+03  d E =-.141950E-02
       N       E                     dE             d eps       ncg     rms          rms(c)
DAV:   1    -0.381226383530E+03   -0.35697E-01   -0.14249E+01  3920   0.516E+00    0.653E-01
RMM:   2    -0.381248108726E+03   -0.21725E-01   -0.20023E-01  3952   0.775E-01    0.774E-01
RMM:   3    -0.381251090186E+03   -0.29815E-02   -0.16025E-02  4047   0.176E-01    0.895E-01
RMM:   4    -0.381273435546E+03   -0.22345E-01   -0.10407E-02  3981   0.113E-01    0.180E+00
RMM:   5    -0.381244812701E+03    0.28623E-01   -0.49689E-03  3949   0.856E-02    0.468E-01
RMM:   6    -0.381244508031E+03    0.30467E-03   -0.20574E-03  3953   0.574E-02    0.439E-01
RMM:   7    -0.381244480623E+03    0.27408E-04   -0.18064E-03  3944   0.536E-02    0.396E-01
RMM:   8    -0.381243499028E+03    0.98160E-03   -0.87957E-04  3944   0.391E-02    0.134E-01
RMM:   9    -0.381243417366E+03    0.81662E-04   -0.18802E-04  3949   0.174E-02    0.101E-01
RMM:  10    -0.381243346302E+03    0.71063E-04   -0.67877E-05  3946   0.108E-02    0.615E-02
RMM:  11    -0.381243319841E+03    0.26461E-04   -0.30817E-05  3938   0.732E-03    0.311E-02
RMM:  12    -0.381243319285E+03    0.55584E-06   -0.11697E-05  3916   0.425E-03    0.289E-02
RMM:  13    -0.381243318277E+03    0.10081E-05   -0.72687E-06  3865   0.341E-03    0.262E-02
RMM:  14    -0.381243314676E+03    0.36009E-05   -0.34708E-06  2508   0.256E-03    0.113E-02
RMM:  15    -0.381243314204E+03    0.47219E-06   -0.10794E-06  2081   0.158E-03
  17 F= -.41704384E+03 E0= -.41672140E+03  d E =-.868457E-02
       N       E                     dE             d eps       ncg     rms          rms(c)
DAV:   1    -0.381243645409E+03   -0.33073E-03   -0.52232E-01  3920   0.127E+00    0.278E-01
RMM:   2    -0.381246505819E+03   -0.28604E-02   -0.18984E-02  3950   0.176E-01    0.445E-01
RMM:   3    -0.381247407217E+03   -0.90140E-03   -0.29824E-03  3965   0.653E-02    0.626E-01
RMM:   4    -0.381244299411E+03    0.31078E-02   -0.57236E-04  3953   0.290E-02    0.189E-01
RMM:   5    -0.381244351866E+03   -0.52454E-04   -0.33537E-04  3942   0.229E-02    0.179E-01
RMM:   6    -0.381244331081E+03    0.20784E-04   -0.24420E-04  3944   0.199E-02    0.172E-01
RMM:   7    -0.381244221991E+03    0.10909E-03   -0.13523E-04  3945   0.151E-02    0.112E-01
RMM:   8    -0.381244176977E+03    0.45014E-04   -0.67783E-05  3940   0.105E-02    0.529E-02
RMM:   9    -0.381244158723E+03    0.18254E-04   -0.22447E-05  3926   0.634E-03    0.230E-02
RMM:  10    -0.381244155645E+03    0.30780E-05   -0.43887E-06  2988   0.284E-03    0.127E-02
RMM:  11    -0.381244155473E+03    0.17235E-06   -0.91554E-07  2095   0.132E-03
  18 F= -.41704424E+03 E0= -.41672177E+03  d E =-.398561E-03
       N       E                     dE             d eps       ncg     rms          rms(c)
DAV:   1    -0.381244198198E+03   -0.42553E-04   -0.32638E-03  4032   0.900E-02    0.226E-02
RMM:   2    -0.381244242477E+03   -0.44279E-04   -0.10550E-04  3952   0.145E-02    0.742E-02
RMM:   3    -0.381244209872E+03    0.32605E-04   -0.83174E-06  3750   0.374E-03    0.346E-02
RMM:   4    -0.381244215572E+03   -0.56998E-05   -0.48568E-06  3129   0.277E-03    0.400E-02
RMM:   5    -0.381244212838E+03    0.27343E-05   -0.61186E-06  3583   0.318E-03    0.381E-02
RMM:   6    -0.381244207892E+03    0.49464E-05   -0.46622E-06  3058   0.279E-03    0.236E-02
RMM:   7    -0.381244205161E+03    0.27308E-05   -0.21844E-06  2235   0.206E-03    0.103E-02
RMM:   8    -0.381244205068E+03    0.92317E-07   -0.99771E-07  2105   0.147E-03
  19 F= -.41704423E+03 E0= -.41672178E+03  d E =0.118047E-04
       N       E                     dE             d eps       ncg     rms          rms(c)
DAV:   1    -0.381248137189E+03   -0.39320E-02   -0.67115E-01  3920   0.139E+00    0.285E-01
RMM:   2    -0.381252171923E+03   -0.40347E-02   -0.24436E-02  3953   0.202E-01    0.506E-01
RMM:   3    -0.381258484024E+03   -0.63121E-02   -0.40610E-03  3973   0.735E-02    0.103E+00
RMM:   4    -0.381249426804E+03    0.90572E-02   -0.14608E-03  3940   0.460E-02    0.210E-01
RMM:   5    -0.381249307874E+03    0.11893E-03   -0.34997E-04  3942   0.240E-02    0.140E-01
RMM:   6    -0.381249336364E+03   -0.28490E-04   -0.26321E-04  3944   0.207E-02    0.157E-01
RMM:   7    -0.381249267439E+03    0.68925E-04   -0.13553E-04  3947   0.151E-02    0.120E-01
RMM:   8    -0.381249223852E+03    0.43586E-04   -0.76576E-05  3942   0.111E-02    0.636E-02
RMM:   9    -0.381249199540E+03    0.24312E-04   -0.32561E-05  3932   0.762E-03    0.288E-02
RMM:  10    -0.381249194701E+03    0.48385E-05   -0.62040E-06  3549   0.327E-03    0.153E-02
RMM:  11    -0.381249193989E+03    0.71254E-06   -0.15490E-06  2153   0.169E-03
  20 F= -.41704479E+03 E0= -.41672242E+03  d E =-.566764E-03
       N       E                     dE             d eps       ncg     rms          rms(c)
DAV:   1    -0.381290912701E+03   -0.41718E-01   -0.19517E+01  3920   0.599E+00    0.703E-01
RMM:   2    -0.381335997894E+03   -0.45085E-01   -0.27970E-01  3954   0.915E-01    0.157E+00
RMM:   3    -0.381330891699E+03    0.51062E-02   -0.22530E-02  4012   0.205E-01    0.135E+00
RMM:   4    -0.381320221349E+03    0.10670E-01   -0.80269E-03  3959   0.112E-01    0.833E-01
RMM:   5    -0.381315702061E+03    0.45193E-02   -0.54124E-03  3953   0.932E-02    0.605E-01
RMM:   6    -0.381314996617E+03    0.70544E-03   -0.25623E-03  3953   0.656E-02    0.490E-01
RMM:   7    -0.381315839210E+03   -0.84259E-03   -0.33579E-03  3943   0.747E-02    0.527E-01
RMM:   8    -0.381314210452E+03    0.16288E-02   -0.14500E-03  3938   0.501E-02    0.260E-01
RMM:   9    -0.381313830234E+03    0.38022E-03   -0.30383E-04  3947   0.224E-02    0.171E-01
RMM:  10    -0.381313634440E+03    0.19579E-03   -0.13649E-04  3940   0.143E-02    0.918E-02
RMM:  11    -0.381313566053E+03    0.68387E-04   -0.81073E-05  3937   0.117E-02    0.476E-02
RMM:  12    -0.381313562471E+03    0.35822E-05   -0.23447E-05  3933   0.601E-03    0.432E-02
RMM:  13    -0.381313558462E+03    0.40091E-05   -0.14602E-05  3917   0.486E-03    0.380E-02
RMM:  14    -0.381313550710E+03    0.77516E-05   -0.10333E-05  3896   0.416E-03    0.179E-02
RMM:  15    -0.381313548450E+03    0.22596E-05   -0.23635E-06  2216   0.218E-03    0.581E-03
RMM:  16    -0.381313548565E+03   -0.11470E-06   -0.89187E-07  2069   0.144E-03
  21 F= -.41705062E+03 E0= -.41672910E+03  d E =-.582659E-02
       N       E                     dE             d eps       ncg     rms          rms(c)
DAV:   1    -0.381313726791E+03   -0.17834E-03   -0.52229E-01  3920   0.127E+00    0.277E-01
RMM:   2    -0.381316699464E+03   -0.29727E-02   -0.18957E-02  3949   0.175E-01    0.457E-01
RMM:   3    -0.381318437442E+03   -0.17380E-02   -0.31184E-03  3963   0.662E-02    0.704E-01
RMM:   4    -0.381314387000E+03    0.40504E-02   -0.68770E-04  3952   0.316E-02    0.189E-01
RMM:   5    -0.381314402081E+03   -0.15081E-04   -0.32900E-04  3942   0.228E-02    0.168E-01
RMM:   6    -0.381314395165E+03    0.69153E-05   -0.23282E-04  3946   0.195E-02    0.162E-01
RMM:   7    -0.381314302363E+03    0.92803E-04   -0.12963E-04  3945   0.148E-02    0.111E-01
RMM:   8    -0.381314258611E+03    0.43752E-04   -0.65076E-05  3941   0.102E-02    0.530E-02
RMM:   9    -0.381314241813E+03    0.16797E-04   -0.22406E-05  3925   0.631E-03    0.260E-02
RMM:  10    -0.381314237858E+03    0.39554E-05   -0.47306E-06  3134   0.292E-03    0.136E-02
RMM:  11    -0.381314237390E+03    0.46777E-06   -0.10237E-06  2095   0.140E-03
  22 F= -.41705085E+03 E0= -.41672932E+03  d E =-.232144E-03
       N       E                     dE             d eps       ncg     rms          rms(c)
DAV:   1    -0.381314208177E+03    0.29681E-04   -0.24728E-03  4060   0.688E-02    0.157E-02
RMM:   2    -0.381314231127E+03   -0.22950E-04   -0.59020E-05  3941   0.118E-02    0.529E-02
RMM:   3    -0.381314216566E+03    0.14561E-04   -0.57702E-06  3335   0.316E-03    0.286E-02
RMM:   4    -0.381314214909E+03    0.16568E-05   -0.22658E-06  2311   0.206E-03    0.228E-02
RMM:   5    -0.381314215355E+03   -0.44581E-06   -0.26848E-06  2347   0.228E-03
  23 F= -.41705079E+03 E0= -.41672926E+03  d E =0.646851E-04
       N       E                     dE             d eps       ncg     rms          rms(c)
DAV:   1    -0.381317501973E+03   -0.32871E-02   -0.66299E-01  3920   0.138E+00    0.280E-01
RMM:   2    -0.381324956424E+03   -0.74545E-02   -0.25070E-02  3952   0.203E-01    0.809E-01
RMM:   3    -0.381325508813E+03   -0.55239E-03   -0.37605E-03  3970   0.705E-02    0.879E-01
RMM:   4    -0.381319047919E+03    0.64609E-02   -0.21872E-03  3937   0.570E-02    0.264E-01
RMM:   5    -0.381318608304E+03    0.43962E-03   -0.44285E-04  3946   0.273E-02    0.122E-01
RMM:   6    -0.381318684917E+03   -0.76614E-04   -0.21948E-04  3943   0.192E-02    0.154E-01
RMM:   7    -0.381318603992E+03    0.80926E-04   -0.12168E-04  3946   0.144E-02    0.103E-01
RMM:   8    -0.381318575518E+03    0.28474E-04   -0.83367E-05  3937   0.117E-02    0.623E-02
RMM:   9    -0.381318550212E+03    0.25306E-04   -0.29395E-05  3933   0.733E-03    0.261E-02
RMM:  10    -0.381318545802E+03    0.44100E-05   -0.50862E-06  3268   0.303E-03    0.137E-02
RMM:  11    -0.381318545798E+03    0.38926E-08   -0.14235E-06  2125   0.163E-03
  24 F= -.41705265E+03 E0= -.41673112E+03  d E =-.186190E-02
       N       E                     dE             d eps       ncg     rms          rms(c)
DAV:   1    -0.381334136161E+03   -0.15590E-01   -0.41907E+00  3920   0.284E+00    0.480E-01
RMM:   2    -0.381375949456E+03   -0.41813E-01   -0.80860E-02  3952   0.454E-01    0.208E+00
RMM:   3    -0.381343533169E+03    0.32416E-01   -0.56752E-03  3998   0.102E-01    0.745E-01
RMM:   4    -0.381347762496E+03   -0.42293E-02   -0.35538E-03  3948   0.767E-02    0.999E-01
RMM:   5    -0.381342836104E+03    0.49264E-02   -0.28382E-03  3946   0.656E-02    0.696E-01
RMM:   6    -0.381341029610E+03    0.18065E-02   -0.15235E-03  3948   0.488E-02    0.442E-01
RMM:   7    -0.381340443492E+03    0.58612E-03   -0.10391E-03  3945   0.403E-02    0.304E-01
RMM:   8    -0.381339822200E+03    0.62129E-03   -0.38403E-04  3946   0.247E-02    0.119E-01
RMM:   9    -0.381339737823E+03    0.84377E-04   -0.86133E-05  3955   0.119E-02    0.663E-02
RMM:  10    -0.381339719789E+03    0.18034E-04   -0.42419E-05  3939   0.807E-03    0.563E-02
RMM:  11    -0.381339701600E+03    0.18189E-04   -0.33232E-05  3919   0.692E-03    0.352E-02
RMM:  12    -0.381339696542E+03    0.50580E-05   -0.11964E-05  3912   0.438E-03    0.189E-02
RMM:  13    -0.381339698288E+03   -0.17465E-05   -0.50585E-06  3221   0.296E-03    0.190E-02
RMM:  14    -0.381339697801E+03    0.48789E-06   -0.27132E-06  2300   0.235E-03
  25 F= -.41705768E+03 E0= -.41673609E+03  d E =-.503445E-02
       N       E                     dE             d eps       ncg     rms          rms(c)
DAV:   1    -0.381339941171E+03   -0.24288E-03   -0.52179E-01  3920   0.127E+00    0.275E-01
RMM:   2    -0.381343265814E+03   -0.33246E-02   -0.19017E-02  3949   0.175E-01    0.490E-01
RMM:   3    -0.381347211005E+03   -0.39452E-02   -0.34980E-03  3962   0.686E-02    0.880E-01
RMM:   4    -0.381340599403E+03    0.66116E-02   -0.10104E-03  3946   0.380E-02    0.185E-01
RMM:   5    -0.381340587357E+03    0.12046E-04   -0.33342E-04  3942   0.231E-02    0.155E-01
RMM:   6    -0.381340581172E+03    0.61856E-05   -0.22001E-04  3945   0.191E-02    0.143E-01
RMM:   7    -0.381340517130E+03    0.64042E-04   -0.11910E-04  3946   0.142E-02    0.108E-01
RMM:   8    -0.381340479898E+03    0.37232E-04   -0.59241E-05  3941   0.974E-03    0.547E-02
RMM:   9    -0.381340461220E+03    0.18678E-04   -0.22049E-05  3924   0.626E-03    0.227E-02
RMM:  10    -0.381340457894E+03    0.33255E-05   -0.43928E-06  2997   0.285E-03    0.112E-02
RMM:  11    -0.381340457801E+03    0.92885E-07   -0.91612E-07  2094   0.132E-03
  26 F= -.41705798E+03 E0= -.41673639E+03  d E =-.301282E-03
       N       E                     dE             d eps       ncg     rms          rms(c)
DAV:   1    -0.381340169869E+03    0.28803E-03   -0.61489E-03  4004   0.112E-01    0.319E-02
RMM:   2    -0.381340217394E+03   -0.47525E-04   -0.17272E-04  3949   0.193E-02    0.824E-02
RMM:   3    -0.381340188710E+03    0.28684E-04   -0.10861E-05  3853   0.445E-03    0.479E-02
RMM:   4    -0.381340201642E+03   -0.12932E-04   -0.72131E-06  3575   0.323E-03    0.595E-02
RMM:   5    -0.381340201098E+03    0.54402E-06   -0.15063E-05  3907   0.487E-03    0.623E-02
RMM:   6    -0.381340183934E+03    0.17163E-04   -0.10133E-05  3869   0.400E-03    0.277E-02
RMM:   7    -0.381340180823E+03    0.31113E-05   -0.43460E-06  2832   0.268E-03    0.136E-02
RMM:   8    -0.381340180183E+03    0.64025E-06   -0.14773E-06  2151   0.176E-03
  27 F= -.41705784E+03 E0= -.41673623E+03  d E =0.148926E-03
       N       E                     dE             d eps       ncg     rms          rms(c)
DAV:   1    -0.381342075164E+03   -0.18943E-02   -0.65590E-01  3920   0.137E+00    0.321E-01
RMM:   2    -0.381345734124E+03   -0.36590E-02   -0.24961E-02  3955   0.205E-01    0.503E-01
RMM:   3    -0.381350808800E+03   -0.50747E-02   -0.38722E-03  3974   0.737E-02    0.943E-01
RMM:   4    -0.381343236353E+03    0.75724E-02   -0.12359E-03  3950   0.414E-02    0.210E-01
RMM:   5    -0.381343567256E+03   -0.33090E-03   -0.67007E-04  3942   0.326E-02    0.288E-01
RMM:   6    -0.381343417945E+03    0.14931E-03   -0.48255E-04  3946   0.278E-02    0.232E-01
RMM:   7    -0.381343169813E+03    0.24813E-03   -0.34219E-04  3942   0.235E-02    0.134E-01
RMM:   8    -0.381343106434E+03    0.63379E-04   -0.12059E-04  3943   0.141E-02    0.734E-02
RMM:   9    -0.381343074121E+03    0.32313E-04   -0.44951E-05  3933   0.881E-03    0.405E-02
RMM:  10    -0.381343063511E+03    0.10610E-04   -0.10055E-05  3900   0.411E-03    0.150E-02
RMM:  11    -0.381343062794E+03    0.71753E-06   -0.24800E-06  2270   0.212E-03
  28 F= -.41705827E+03 E0= -.41673666E+03  d E =-.438811E-03
       N       E                     dE             d eps       ncg     rms          rms(c)
DAV:   1    -0.381346394286E+03   -0.33308E-02   -0.20077E-01  3920   0.616E-01    0.120E-01
RMM:   2    -0.381347278775E+03   -0.88449E-03   -0.38031E-03  3949   0.100E-01    0.311E-01
RMM:   3    -0.381346810869E+03    0.46791E-03   -0.24838E-04  4029   0.217E-02    0.196E-01
RMM:   4    -0.381346930210E+03   -0.11934E-03   -0.90974E-05  3979   0.116E-02    0.203E-01
RMM:   5    -0.381346901171E+03    0.29038E-04   -0.23298E-04  3942   0.186E-02    0.220E-01
RMM:   6    -0.381346715715E+03    0.18546E-03   -0.13848E-04  3946   0.147E-02    0.115E-01
RMM:   7    -0.381346688012E+03    0.27703E-04   -0.90041E-05  3941   0.120E-02    0.772E-02
RMM:   8    -0.381346655574E+03    0.32438E-04   -0.34880E-05  3925   0.769E-03    0.332E-02
RMM:   9    -0.381346648610E+03    0.69636E-05   -0.72579E-06  3810   0.349E-03    0.174E-02
RMM:  10    -0.381346646810E+03    0.18006E-05   -0.20265E-06  2213   0.188E-03    0.122E-02
RMM:  11    -0.381346646017E+03    0.79208E-06   -0.27833E-06  2247   0.231E-03
  29 F= -.41705851E+03 E0= -.41673688E+03  d E =-.237373E-03
       N       E                     dE             d eps       ncg     rms          rms(c)
DAV:   1    -0.381346822582E+03   -0.17577E-03   -0.52240E-01  3920   0.127E+00    0.277E-01
RMM:   2    -0.381349610671E+03   -0.27881E-02   -0.18901E-02  3950   0.175E-01    0.439E-01
RMM:   3    -0.381349184632E+03    0.42604E-03   -0.27785E-03  3964   0.638E-02    0.486E-01
RMM:   4    -0.381347572161E+03    0.16125E-02   -0.45580E-04  3957   0.260E-02    0.209E-01
RMM:   5    -0.381347547689E+03    0.24472E-04   -0.34626E-04  3942   0.229E-02    0.182E-01
RMM:   6    -0.381347472206E+03    0.75483E-04   -0.23686E-04  3943   0.197E-02    0.152E-01
RMM:   7    -0.381347395175E+03    0.77031E-04   -0.12739E-04  3946   0.147E-02    0.109E-01
RMM:   8    -0.381347356002E+03    0.39173E-04   -0.60147E-05  3939   0.982E-03    0.554E-02
RMM:   9    -0.381347336087E+03    0.19915E-04   -0.22834E-05  3925   0.638E-03    0.236E-02
RMM:  10    -0.381347332827E+03    0.32595E-05   -0.40335E-06  2852   0.275E-03    0.125E-02
RMM:  11    -0.381347332908E+03   -0.80385E-07   -0.99907E-07  2101   0.137E-03
  30 F= -.41705878E+03 E0= -.41673714E+03  d E =-.270459E-03
       N       E                     dE             d eps       ncg     rms          rms(c)
DAV:   1    -0.381347465585E+03   -0.13276E-03   -0.42645E-03  3920   0.101E-01    0.278E-02
RMM:   2    -0.381347514354E+03   -0.48770E-04   -0.13935E-04  3950   0.167E-02    0.794E-02
RMM:   3    -0.381347480385E+03    0.33969E-04   -0.10117E-05  3849   0.416E-03    0.421E-02
RMM:   4    -0.381347484628E+03   -0.42425E-05   -0.53395E-06  3256   0.291E-03    0.428E-02
RMM:   5    -0.381347485937E+03   -0.13094E-05   -0.96657E-06  3887   0.393E-03    0.470E-02
RMM:   6    -0.381347477908E+03    0.80295E-05   -0.64423E-06  3590   0.322E-03    0.278E-02
RMM:   7    -0.381347474189E+03    0.37192E-05   -0.33705E-06  2526   0.245E-03    0.117E-02
RMM:   8    -0.381347474152E+03    0.36634E-07   -0.12705E-06  2129   0.165E-03
  31 F= -.41705878E+03 E0= -.41673714E+03  d E =0.372250E-05
       N       E                     dE             d eps       ncg     rms          rms(c)
DAV:   1    -0.381348305603E+03   -0.83141E-03   -0.62330E-01  3920   0.134E+00    0.282E-01
RMM:   2    -0.381351440897E+03   -0.31353E-02   -0.22983E-02  3952   0.195E-01    0.430E-01
RMM:   3    -0.381353072406E+03   -0.16315E-02   -0.31497E-03  3969   0.676E-02    0.672E-01
RMM:   4    -0.381349433192E+03    0.36392E-02   -0.63023E-04  3963   0.304E-02    0.191E-01
RMM:   5    -0.381349543702E+03   -0.11051E-03   -0.37211E-04  3942   0.243E-02    0.195E-01
RMM:   6    -0.381349472011E+03    0.71691E-04   -0.29774E-04  3947   0.220E-02    0.177E-01
RMM:   7    -0.381349378742E+03    0.93269E-04   -0.16530E-04  3945   0.165E-02    0.134E-01
RMM:   8    -0.381349315975E+03    0.62767E-04   -0.79722E-05  3942   0.114E-02    0.654E-02
RMM:   9    -0.381349289377E+03    0.26598E-04   -0.35165E-05  3931   0.786E-03    0.320E-02
RMM:  10    -0.381349283809E+03    0.55682E-05   -0.70215E-06  3722   0.344E-03    0.156E-02
RMM:  11    -0.381349283178E+03    0.63114E-06   -0.16728E-06  2153   0.175E-03
  32 F= -.41705874E+03 E0= -.41673709E+03  d E =0.388751E-04
       N       E                     dE             d eps       ncg     rms          rms(c)
DAV:   1    -0.381351205297E+03   -0.19215E-02   -0.92183E-02  3920   0.429E-01    0.642E-02
RMM:   2    -0.381351449028E+03   -0.24373E-03   -0.17061E-03  3956   0.666E-02    0.146E-01
RMM:   3    -0.381351346156E+03    0.10287E-03   -0.10726E-04  4096   0.145E-02    0.671E-02
RMM:   4    -0.381351718391E+03   -0.37223E-03   -0.99587E-05  3955   0.113E-02    0.218E-01
RMM:   5    -0.381351393662E+03    0.32473E-03   -0.72222E-05  3933   0.932E-03    0.106E-01
RMM:   6    -0.381351349471E+03    0.44191E-04   -0.32420E-05  3925   0.714E-03    0.620E-02
RMM:   7    -0.381351342457E+03    0.70144E-05   -0.23855E-05  3926   0.613E-03    0.446E-02
RMM:   8    -0.381351333298E+03    0.91590E-05   -0.12572E-05  3915   0.465E-03    0.193E-02
RMM:   9    -0.381351331153E+03    0.21451E-05   -0.26642E-06  2351   0.225E-03    0.920E-03
RMM:  10    -0.381351330851E+03    0.30204E-06   -0.79279E-07  2073   0.121E-03
  33 F= -.41705879E+03 E0= -.41673712E+03  d E =-.501147E-04
       N       E                     dE             d eps       ncg     rms          rms(c)
DAV:   1    -0.381351572990E+03   -0.24184E-03   -0.52223E-01  3920   0.127E+00    0.275E-01
RMM:   2    -0.381354479659E+03   -0.29067E-02   -0.18911E-02  3949   0.175E-01    0.452E-01
RMM:   3    -0.381355246563E+03   -0.76690E-03   -0.29608E-03  3963   0.651E-02    0.617E-01
RMM:   4    -0.381352265182E+03    0.29814E-02   -0.59237E-04  3955   0.294E-02    0.196E-01
RMM:   5    -0.381352262402E+03    0.27806E-05   -0.33529E-04  3942   0.229E-02    0.173E-01
RMM:   6    -0.381352262738E+03   -0.33671E-06   -0.23183E-04  3944   0.194E-02    0.174E-01
RMM:   7    -0.381352148330E+03    0.11441E-03   -0.13241E-04  3945   0.150E-02    0.107E-01
RMM:   8    -0.381352106971E+03    0.41359E-04   -0.68595E-05  3940   0.105E-02    0.518E-02
RMM:   9    -0.381352090039E+03    0.16932E-04   -0.21983E-05  3922   0.627E-03    0.250E-02
RMM:  10    -0.381352086581E+03    0.34584E-05   -0.44266E-06  3010   0.284E-03    0.143E-02
RMM:  11    -0.381352086078E+03    0.50251E-06   -0.96188E-07  2091   0.136E-03
  34 F= -.41705907E+03 E0= -.41673740E+03  d E =-.282070E-03
       N       E                     dE             d eps       ncg     rms          rms(c)
DAV:   1    -0.381352014738E+03    0.71843E-04   -0.20844E-03  4060   0.656E-02    0.127E-02
RMM:   2    -0.381352033681E+03   -0.18943E-04   -0.45202E-05  3945   0.105E-02    0.435E-02
RMM:   3    -0.381352030415E+03    0.32658E-05   -0.90490E-06  3823   0.362E-03    0.385E-02
RMM:   4    -0.381352018535E+03    0.11880E-04   -0.22382E-06  2343   0.193E-03    0.118E-02
RMM:   5    -0.381352018906E+03   -0.37086E-06   -0.12050E-06  2053   0.157E-03
  35 F= -.41705909E+03 E0= -.41673741E+03  d E =-.181145E-04
       N       E                     dE             d eps       ncg     rms          rms(c)
DAV:   1    -0.381352687521E+03   -0.66899E-03   -0.62726E-01  3920   0.134E+00    0.281E-01
RMM:   2    -0.381355716412E+03   -0.30289E-02   -0.23045E-02  3952   0.195E-01    0.421E-01
RMM:   3    -0.381355228463E+03    0.48795E-03   -0.28243E-03  3969   0.655E-02    0.453E-01
RMM:   4    -0.381353984756E+03    0.12437E-02   -0.45355E-04  3968   0.259E-02    0.225E-01
RMM:   5    -0.381354045561E+03   -0.60805E-04   -0.41894E-04  3942   0.249E-02    0.226E-01
RMM:   6    -0.381353877906E+03    0.16766E-03   -0.29593E-04  3947   0.218E-02    0.185E-01
RMM:   7    -0.381353765049E+03    0.11286E-03   -0.17444E-04  3946   0.170E-02    0.131E-01
RMM:   8    -0.381353704890E+03    0.60159E-04   -0.84017E-05  3942   0.117E-02    0.656E-02
RMM:   9    -0.381353679997E+03    0.24892E-04   -0.34870E-05  3934   0.783E-03    0.357E-02
RMM:  10    -0.381353672975E+03    0.70221E-05   -0.75663E-06  3829   0.357E-03    0.161E-02
RMM:  11    -0.381353672299E+03    0.67565E-06   -0.17061E-06  2154   0.177E-03
  36 F= -.41705880E+03 E0= -.41673712E+03  d E =0.290188E-03
       N       E                     dE             d eps       ncg     rms          rms(c)
DAV:   1    -0.381353188805E+03    0.48417E-03   -0.57604E-03  3920   0.109E-01    0.190E-02
RMM:   2    -0.381353276240E+03   -0.87435E-04   -0.13090E-04  3962   0.176E-02    0.100E-01
RMM:   3    -0.381353222271E+03    0.53970E-04   -0.27380E-05  3944   0.631E-03    0.561E-02
RMM:   4    -0.381353197579E+03    0.24692E-04   -0.66141E-06  3575   0.327E-03    0.149E-02
RMM:   5    -0.381353197499E+03    0.79177E-07   -0.17978E-06  2185   0.190E-03
  37 F= -.41705881E+03 E0= -.41673713E+03  d E =-.863734E-05
       N       E                     dE             d eps       ncg     rms          rms(c)
DAV:   1    -0.381353419240E+03   -0.22166E-03   -0.52219E-01  3920   0.127E+00    0.280E-01
RMM:   2    -0.381356577158E+03   -0.31579E-02   -0.19089E-02  3950   0.175E-01    0.476E-01
RMM:   3    -0.381358823206E+03   -0.22460E-02   -0.33121E-03  3964   0.678E-02    0.759E-01
RMM:   4    -0.381354080925E+03    0.47423E-02   -0.77343E-04  3951   0.336E-02    0.195E-01
RMM:   5    -0.381354082264E+03   -0.13390E-05   -0.32879E-04  3942   0.229E-02    0.166E-01
RMM:   6    -0.381354044092E+03    0.38172E-04   -0.22675E-04  3945   0.193E-02    0.137E-01
RMM:   7    -0.381353983538E+03    0.60555E-04   -0.12719E-04  3945   0.147E-02    0.107E-01
RMM:   8    -0.381353949141E+03    0.34397E-04   -0.54635E-05  3937   0.934E-03    0.604E-02
RMM:   9    -0.381353928810E+03    0.20331E-04   -0.23201E-05  3924   0.637E-03    0.293E-02
RMM:  10    -0.381353924049E+03    0.47614E-05   -0.53409E-06  3329   0.306E-03    0.147E-02
RMM:  11    -0.381353923355E+03    0.69349E-06   -0.11267E-06  2096   0.147E-03
  38 F= -.41705911E+03 E0= -.41673742E+03  d E =-.301314E-03
       N       E                     dE             d eps       ncg     rms          rms(c)
DAV:   1    -0.381353906388E+03    0.17661E-04   -0.13509E-03  4060   0.545E-02    0.102E-02
RMM:   2    -0.381353913388E+03   -0.70001E-05   -0.30451E-05  3937   0.853E-03    0.253E-02
RMM:   3    -0.381353911427E+03    0.19604E-05   -0.40812E-06  2773   0.275E-03    0.204E-02
RMM:   4    -0.381353909632E+03    0.17955E-05   -0.11211E-06  2099   0.144E-03    0.128E-02
RMM:   5    -0.381353909517E+03    0.11505E-06   -0.89742E-07  2064   0.129E-03
  39 F= -.41705912E+03 E0= -.41673742E+03  d E =-.607970E-05
       N       E                     dE             d eps       ncg     rms          rms(c)
DAV:   1    -0.381354059893E+03   -0.15026E-03   -0.63005E-01  3920   0.137E+00    0.263E-01
RMM:   2    -0.381357547501E+03   -0.34876E-02   -0.22785E-02  3951   0.193E-01    0.487E-01
RMM:   3    -0.381356821962E+03    0.72554E-03   -0.25794E-03  3970   0.621E-02    0.468E-01
RMM:   4    -0.381356130653E+03    0.69131E-03   -0.80371E-04  3962   0.336E-02    0.343E-01
RMM:   5    -0.381355303844E+03    0.82681E-03   -0.54289E-04  3942   0.284E-02    0.180E-01
RMM:   6    -0.381355182257E+03    0.12159E-03   -0.19742E-04  3944   0.182E-02    0.130E-01
RMM:   7    -0.381355130043E+03    0.52214E-04   -0.10061E-04  3947   0.131E-02    0.896E-02
RMM:   8    -0.381355117940E+03    0.12103E-04   -0.74300E-05  3941   0.111E-02    0.580E-02
RMM:   9    -0.381355095071E+03    0.22869E-04   -0.28060E-05  3927   0.712E-03    0.261E-02
RMM:  10    -0.381355091156E+03    0.39145E-05   -0.45237E-06  3042   0.292E-03    0.125E-02
RMM:  11    -0.381355091096E+03    0.60187E-07   -0.10913E-06  2058   0.146E-03
  40 F= -.41705920E+03 E0= -.41673751E+03  d E =-.863582E-04
       N       E                     dE             d eps       ncg     rms          rms(c)
DAV:   1    -0.381356813867E+03   -0.17227E-02   -0.22923E-01  3920   0.760E-01    0.145E-01
RMM:   2    -0.381357432503E+03   -0.61864E-03   -0.54441E-03  3958   0.109E-01    0.205E-01
RMM:   3    -0.381357264956E+03    0.16755E-03   -0.32804E-04  3983   0.250E-02    0.109E-01
RMM:   4    -0.381358572353E+03   -0.13074E-02   -0.41053E-04  3946   0.232E-02    0.402E-01
RMM:   5    -0.381357573195E+03    0.99916E-03   -0.33874E-04  3956   0.199E-02    0.233E-01
RMM:   6    -0.381357278469E+03    0.29473E-03   -0.16794E-04  3938   0.162E-02    0.118E-01
RMM:   7    -0.381357225805E+03    0.52664E-04   -0.70767E-05  3939   0.107E-02    0.574E-02
RMM:   8    -0.381357225641E+03    0.16445E-06   -0.35182E-05  3924   0.765E-03    0.485E-02
RMM:   9    -0.381357210310E+03    0.15331E-04   -0.11899E-05  3905   0.448E-03    0.148E-02
RMM:  10    -0.381357209514E+03    0.79541E-06   -0.16420E-06  2190   0.179E-03
  41 F= -.41705936E+03 E0= -.41673766E+03  d E =-.159740E-03
       N       E                     dE             d eps       ncg     rms          rms(c)
DAV:   1    -0.381357437202E+03   -0.22689E-03   -0.52201E-01  3920   0.127E+00    0.278E-01
RMM:   2    -0.381360556129E+03   -0.31189E-02   -0.19125E-02  3950   0.176E-01    0.470E-01
RMM:   3    -0.381362598967E+03   -0.20428E-02   -0.32511E-03  3964   0.673E-02    0.739E-01
RMM:   4    -0.381358116194E+03    0.44828E-02   -0.74247E-04  3952   0.328E-02    0.194E-01
RMM:   5    -0.381358124438E+03   -0.82438E-05   -0.33356E-04  3942   0.231E-02    0.169E-01
RMM:   6    -0.381358101465E+03    0.22974E-04   -0.22802E-04  3944   0.193E-02    0.152E-01
RMM:   7    -0.381358028646E+03    0.72819E-04   -0.12594E-04  3945   0.146E-02    0.112E-01
RMM:   8    -0.381357984881E+03    0.43765E-04   -0.63788E-05  3939   0.101E-02    0.555E-02
RMM:   9    -0.381357965845E+03    0.19036E-04   -0.22775E-05  3925   0.636E-03    0.244E-02
RMM:  10    -0.381357962526E+03    0.33198E-05   -0.45461E-06  3051   0.287E-03    0.137E-02
RMM:  11    -0.381357962138E+03    0.38788E-06   -0.97719E-07  2099   0.137E-03
  42 F= -.41705971E+03 E0= -.41673800E+03  d E =-.350629E-03
       N       E                     dE             d eps       ncg     rms          rms(c)
DAV:   1    -0.381357944431E+03    0.18094E-04   -0.37873E-03  4060   0.890E-02    0.142E-02
RMM:   2    -0.381357975889E+03   -0.31458E-04   -0.75833E-05  3944   0.137E-02    0.576E-02
RMM:   3    -0.381357961430E+03    0.14460E-04   -0.11585E-05  3890   0.419E-03    0.378E-02
RMM:   4    -0.381357950791E+03    0.10639E-04   -0.32208E-06  2516   0.230E-03    0.140E-02
RMM:   5    -0.381357950243E+03    0.54854E-06   -0.15543E-06  2119   0.181E-03
  43 F= -.41705972E+03 E0= -.41673801E+03  d E =-.202136E-05
       N       E                     dE             d eps       ncg     rms          rms(c)
DAV:   1    -0.381357689144E+03    0.26165E-03   -0.64076E-01  3920   0.137E+00    0.267E-01
RMM:   2    -0.381361069304E+03   -0.33802E-02   -0.22762E-02  3951   0.194E-01    0.461E-01
RMM:   3    -0.381361899259E+03   -0.82995E-03   -0.29109E-03  3967   0.650E-02    0.617E-01
RMM:   4    -0.381359161023E+03    0.27382E-02   -0.78814E-04  3964   0.338E-02    0.241E-01
RMM:   5    -0.381358916722E+03    0.24430E-03   -0.43357E-04  3942   0.260E-02    0.171E-01
RMM:   6    -0.381358813782E+03    0.10294E-03   -0.20335E-04  3944   0.186E-02    0.129E-01
RMM:   7    -0.381358774543E+03    0.39240E-04   -0.10864E-04  3948   0.136E-02    0.100E-01
RMM:   8    -0.381358751782E+03    0.22761E-04   -0.72677E-05  3943   0.109E-02    0.612E-02
RMM:   9    -0.381358727322E+03    0.24460E-04   -0.27286E-05  3925   0.701E-03    0.263E-02
RMM:  10    -0.381358723530E+03    0.37923E-05   -0.49726E-06  3216   0.302E-03    0.137E-02
RMM:  11    -0.381358723301E+03    0.22880E-06   -0.11475E-06  2080   0.149E-03
  44 F= -.41705940E+03 E0= -.41673770E+03  d E =0.314754E-03
       N       E                     dE             d eps       ncg     rms          rms(c)
DAV:   1    -0.381358490922E+03    0.23261E-03   -0.33040E-03  3976   0.895E-02    0.170E-02
RMM:   2    -0.381358520538E+03   -0.29616E-04   -0.78912E-05  3959   0.132E-02    0.548E-02
RMM:   3    -0.381358513381E+03    0.71569E-05   -0.13202E-05  3913   0.444E-03    0.449E-02
RMM:   4    -0.381358498057E+03    0.15324E-04   -0.38134E-06  2709   0.244E-03    0.156E-02
RMM:   5    -0.381358499163E+03   -0.11060E-05   -0.22722E-06  2248   0.213E-03    0.144E-02
RMM:   6    -0.381358498477E+03    0.68624E-06   -0.14346E-06  2131   0.178E-03
  45 F= -.41705941E+03 E0= -.41673770E+03  d E =-.742278E-05
       N       E                     dE             d eps       ncg     rms          rms(c)
DAV:   1    -0.381358734900E+03   -0.23574E-03   -0.52211E-01  3920   0.127E+00    0.279E-01
RMM:   2    -0.381361813761E+03   -0.30789E-02   -0.19121E-02  3950   0.176E-01    0.467E-01
RMM:   3    -0.381364029761E+03   -0.22160E-02   -0.32765E-03  3964   0.675E-02    0.749E-01
RMM:   4    -0.381359370462E+03    0.46593E-02   -0.74426E-04  3952   0.329E-02    0.186E-01
RMM:   5    -0.381359393351E+03   -0.22889E-04   -0.32579E-04  3942   0.228E-02    0.166E-01
RMM:   6    -0.381359376463E+03    0.16888E-04   -0.23193E-04  3944   0.195E-02    0.152E-01
RMM:   7    -0.381359300568E+03    0.75895E-04   -0.12592E-04  3948   0.146E-02    0.111E-01
RMM:   8    -0.381359258236E+03    0.42331E-04   -0.61299E-05  3942   0.990E-03    0.551E-02
RMM:   9    -0.381359239275E+03    0.18961E-04   -0.22930E-05  3926   0.638E-03    0.241E-02
RMM:  10    -0.381359235833E+03    0.34422E-05   -0.44432E-06  3021   0.285E-03    0.121E-02
RMM:  11    -0.381359235675E+03    0.15835E-06   -0.10436E-06  2098   0.141E-03
  46 F= -.41705975E+03 E0= -.41673804E+03  d E =-.346519E-03
       N       E                     dE             d eps       ncg     rms          rms(c)
DAV:   1    -0.381359294395E+03   -0.58562E-04   -0.61548E-03  3948   0.111E-01    0.267E-02
RMM:   2    -0.381359333922E+03   -0.39527E-04   -0.16180E-04  3951   0.189E-02    0.700E-02
RMM:   3    -0.381359312510E+03    0.21412E-04   -0.11244E-05  3873   0.444E-03    0.416E-02
RMM:   4    -0.381359313386E+03   -0.87609E-06   -0.47748E-06  3045   0.277E-03
  47 F= -.41705979E+03 E0= -.41673807E+03  d E =-.342635E-04
       N       E                     dE             d eps       ncg     rms          rms(c)
DAV:   1    -0.381359069835E+03    0.24268E-03   -0.64512E-01  3920   0.137E+00    0.284E-01
RMM:   2    -0.381363218519E+03   -0.41487E-02   -0.23523E-02  3953   0.198E-01    0.568E-01
RMM:   3    -0.381363904892E+03   -0.68637E-03   -0.33290E-03  3970   0.700E-02    0.698E-01
RMM:   4    -0.381360779678E+03    0.31252E-02   -0.10341E-03  3960   0.388E-02    0.311E-01
RMM:   5    -0.381360374061E+03    0.40562E-03   -0.51163E-04  3943   0.281E-02    0.218E-01
RMM:   6    -0.381360253830E+03    0.12023E-03   -0.26200E-04  3945   0.203E-02    0.188E-01
RMM:   7    -0.381360091736E+03    0.16209E-03   -0.19012E-04  3944   0.180E-02    0.865E-02
RMM:   8    -0.381360082741E+03    0.89951E-05   -0.89459E-05  3944   0.123E-02    0.637E-02
RMM:   9    -0.381360061686E+03    0.21055E-04   -0.29711E-05  3931   0.725E-03    0.409E-02
RMM:  10    -0.381360052575E+03    0.91108E-05   -0.74768E-06  3835   0.361E-03    0.168E-02
RMM:  11    -0.381360051796E+03    0.77982E-06   -0.16591E-06  2133   0.178E-03
  48 F= -.41705950E+03 E0= -.41673782E+03  d E =0.284535E-03
       N       E                     dE             d eps       ncg     rms          rms(c)
DAV:   1    -0.381361109288E+03   -0.10567E-02   -0.84553E-02  3920   0.430E-01    0.515E-02
RMM:   2    -0.381361302721E+03   -0.19343E-03   -0.15579E-03  3965   0.625E-02    0.954E-02
RMM:   3    -0.381361272049E+03    0.30672E-04   -0.12548E-04  3989   0.154E-02    0.704E-02
RMM:   4    -0.381361377155E+03   -0.10511E-03   -0.56599E-05  3964   0.865E-03    0.127E-01
RMM:   5    -0.381361244266E+03    0.13289E-03   -0.30905E-05  3932   0.654E-03    0.440E-02
RMM:   6    -0.381361238039E+03    0.62270E-05   -0.13246E-05  3911   0.464E-03    0.292E-02
RMM:   7    -0.381361239375E+03   -0.13361E-05   -0.96747E-06  3896   0.401E-03    0.265E-02
RMM:   8    -0.381361239268E+03    0.10630E-06   -0.86128E-06  3884   0.383E-03
  49 F= -.41705953E+03 E0= -.41673783E+03  d E =-.226084E-04
       N       E                     dE             d eps       ncg     rms          rms(c)
DAV:   1    -0.381361477513E+03   -0.23814E-03   -0.52176E-01  3920   0.127E+00    0.276E-01
RMM:   2    -0.381364554483E+03   -0.30770E-02   -0.18975E-02  3949   0.175E-01    0.466E-01
RMM:   3    -0.381367128573E+03   -0.25741E-02   -0.32619E-03  3964   0.671E-02    0.773E-01
RMM:   4    -0.381362128303E+03    0.50003E-02   -0.79114E-04  3949   0.338E-02    0.184E-01
RMM:   5    -0.381362141530E+03   -0.13228E-04   -0.32480E-04  3942   0.228E-02    0.161E-01
RMM:   6    -0.381362112667E+03    0.28864E-04   -0.22076E-04  3946   0.191E-02    0.136E-01
RMM:   7    -0.381362055750E+03    0.56917E-04   -0.11854E-04  3944   0.142E-02    0.103E-01
RMM:   8    -0.381362022121E+03    0.33629E-04   -0.56189E-05  3940   0.944E-03    0.585E-02
RMM:   9    -0.381362001778E+03    0.20343E-04   -0.22421E-05  3924   0.628E-03    0.238E-02
RMM:  10    -0.381361998429E+03    0.33491E-05   -0.44665E-06  3017   0.285E-03    0.126E-02
RMM:  11    -0.381361998150E+03    0.27913E-06   -0.96009E-07  2096   0.135E-03
  50 F= -.41705988E+03 E0= -.41673820E+03  d E =-.356298E-03
       N       E                     dE             d eps       ncg     rms          rms(c)
DAV:   1    -0.381361748479E+03    0.24995E-03   -0.69438E-03  4004   0.117E-01    0.321E-02
RMM:   2    -0.381361791791E+03   -0.43312E-04   -0.17471E-04  3950   0.200E-02    0.799E-02
RMM:   3    -0.381361766163E+03    0.25628E-04   -0.12083E-05  3909   0.477E-03    0.421E-02
RMM:   4    -0.381361798666E+03   -0.32503E-04   -0.11755E-05  3822   0.387E-03    0.736E-02
RMM:   5    -0.381361776794E+03    0.21872E-04   -0.14983E-05  3903   0.480E-03    0.570E-02
RMM:   6    -0.381361763840E+03    0.12955E-04   -0.11165E-05  3872   0.413E-03    0.286E-02
RMM:   7    -0.381361760258E+03    0.35819E-05   -0.42455E-06  2823   0.269E-03    0.152E-02
RMM:   8    -0.381361759553E+03    0.70452E-06   -0.15565E-06  2162   0.181E-03
  51 F= -.41705981E+03 E0= -.41673812E+03  d E =0.714250E-04
       N       E                     dE             d eps       ncg     rms          rms(c)
DAV:   1    -0.381361548071E+03    0.21219E-03   -0.67485E-01  3920   0.138E+00    0.302E-01
RMM:   2    -0.381364513736E+03   -0.29657E-02   -0.24306E-02  3956   0.203E-01    0.411E-01
RMM:   3    -0.381362962173E+03    0.15516E-02   -0.28453E-03  3972   0.669E-02    0.266E-01
RMM:   4    -0.381363567828E+03   -0.60565E-03   -0.47496E-04  3970   0.261E-02    0.335E-01
RMM:   5    -0.381363764670E+03   -0.19684E-03   -0.71054E-04  3943   0.295E-02    0.369E-01
RMM:   6    -0.381362788317E+03    0.97635E-03   -0.43796E-04  3946   0.261E-02    0.174E-01
RMM:   7    -0.381362703081E+03    0.85237E-04   -0.17520E-04  3946   0.170E-02    0.137E-01
RMM:   8    -0.381362645242E+03    0.57839E-04   -0.80531E-05  3942   0.113E-02    0.765E-02
RMM:   9    -0.381362605922E+03    0.39320E-04   -0.38599E-05  3931   0.821E-03    0.256E-02
RMM:  10    -0.381362602201E+03    0.37209E-05   -0.61354E-06  3508   0.324E-03    0.134E-02
RMM:  11    -0.381362602749E+03   -0.54834E-06   -0.21040E-06  2215   0.196E-03
  52 F= -.41705968E+03 E0= -.41673802E+03  d E =0.131167E-03
       N       E                     dE             d eps       ncg     rms          rms(c)
DAV:   1    -0.381363489924E+03   -0.88772E-03   -0.85798E-02  3920   0.409E-01    0.480E-02
RMM:   2    -0.381363724233E+03   -0.23431E-03   -0.14288E-03  3957   0.624E-02    0.133E-01
RMM:   3    -0.381363671138E+03    0.53095E-04   -0.11584E-04  4014   0.145E-02    0.929E-02
RMM:   4    -0.381363623107E+03    0.48031E-04   -0.31251E-05  3978   0.707E-03    0.581E-02
RMM:   5    -0.381363619258E+03    0.38486E-05   -0.22357E-05  3927   0.601E-03    0.590E-02
RMM:   6    -0.381363611177E+03    0.80811E-05   -0.14790E-05  3912   0.497E-03    0.446E-02
RMM:   7    -0.381363614497E+03   -0.33195E-05   -0.17334E-05  3916   0.528E-03    0.427E-02
RMM:   8    -0.381363605145E+03    0.93521E-05   -0.11304E-05  3902   0.437E-03    0.160E-02
RMM:   9    -0.381363603523E+03    0.16214E-05   -0.17574E-06  2177   0.184E-03    0.745E-03
RMM:  10    -0.381363603273E+03    0.25036E-06   -0.62558E-07  2017   0.108E-03
  53 F= -.41705971E+03 E0= -.41673806E+03  d E =-.273045E-04
       N       E                     dE             d eps       ncg     rms          rms(c)
DAV:   1    -0.381363784854E+03   -0.18133E-03   -0.52235E-01  3920   0.127E+00    0.280E-01
RMM:   2    -0.381366682379E+03   -0.28975E-02   -0.19014E-02  3950   0.175E-01    0.450E-01
RMM:   3    -0.381367433442E+03   -0.75106E-03   -0.30329E-03  3964   0.659E-02    0.617E-01
RMM:   4    -0.381364456508E+03    0.29769E-02   -0.56538E-04  3956   0.289E-02    0.195E-01
RMM:   5    -0.381364492892E+03   -0.36384E-04   -0.33898E-04  3942   0.230E-02    0.181E-01
RMM:   6    -0.381364452637E+03    0.40256E-04   -0.24057E-04  3944   0.198E-02    0.163E-01
RMM:   7    -0.381364360094E+03    0.92543E-04   -0.13129E-04  3945   0.149E-02    0.112E-01
RMM:   8    -0.381364314855E+03    0.45239E-04   -0.66040E-05  3939   0.103E-02    0.548E-02
RMM:   9    -0.381364296579E+03    0.18276E-04   -0.23075E-05  3927   0.640E-03    0.251E-02
RMM:  10    -0.381364293253E+03    0.33258E-05   -0.45629E-06  3055   0.287E-03    0.143E-02
RMM:  11    -0.381364292818E+03    0.43525E-06   -0.99171E-07  2097   0.138E-03
  54 F= -.41706005E+03 E0= -.41673840E+03  d E =-.346054E-03
       N       E                     dE             d eps       ncg     rms          rms(c)
DAV:   1    -0.381364403378E+03   -0.11012E-03   -0.39323E-03  3920   0.916E-02    0.242E-02
RMM:   2    -0.381364483652E+03   -0.80274E-04   -0.12070E-04  3948   0.159E-02    0.978E-02
RMM:   3    -0.381364415586E+03    0.68066E-04   -0.12149E-05  3897   0.443E-03    0.386E-02
RMM:   4    -0.381364420220E+03   -0.46340E-05   -0.50871E-06  3200   0.294E-03    0.402E-02
RMM:   5    -0.381364419660E+03    0.56019E-06   -0.69152E-06  3743   0.340E-03
  55 F= -.41706004E+03 E0= -.41673841E+03  d E =0.958861E-05
       N       E                     dE             d eps       ncg     rms          rms(c)
DAV:   1    -0.381363397131E+03    0.10231E-02   -0.65222E-01  3920   0.137E+00    0.289E-01
RMM:   2    -0.381367857881E+03   -0.44608E-02   -0.24247E-02  3955   0.200E-01    0.557E-01
RMM:   3    -0.381374015067E+03   -0.61572E-02   -0.42824E-03  3973   0.753E-02    0.105E+00
RMM:   4    -0.381364645337E+03    0.93697E-02   -0.15658E-03  3939   0.477E-02    0.221E-01
RMM:   5    -0.381364499095E+03    0.14624E-03   -0.35349E-04  3943   0.242E-02    0.143E-01
RMM:   6    -0.381364504984E+03   -0.58892E-05   -0.24580E-04  3943   0.202E-02    0.144E-01
RMM:   7    -0.381364466597E+03    0.38387E-04   -0.13686E-04  3947   0.152E-02    0.122E-01
RMM:   8    -0.381364419989E+03    0.46607E-04   -0.76917E-05  3939   0.111E-02    0.719E-02
RMM:   9    -0.381364388908E+03    0.31081E-04   -0.32181E-05  3932   0.754E-03    0.230E-02
RMM:  10    -0.381364385988E+03    0.29205E-05   -0.62689E-06  3562   0.331E-03    0.133E-02
RMM:  11    -0.381364386224E+03   -0.23595E-06   -0.14569E-06  2157   0.165E-03
  56 F= -.41705979E+03 E0= -.41673815E+03  d E =0.257729E-03
       N       E                     dE             d eps       ncg     rms          rms(c)
DAV:   1    -0.381364625866E+03   -0.23988E-03   -0.18751E-02  3920   0.192E-01    0.231E-02
RMM:   2    -0.381364676685E+03   -0.50818E-04   -0.32219E-04  3957   0.296E-02    0.641E-02
RMM:   3    -0.381364654830E+03    0.21854E-04   -0.24401E-05  3986   0.691E-03    0.266E-02
RMM:   4    -0.381364673817E+03   -0.18987E-04   -0.89187E-06  3758   0.355E-03    0.518E-02
RMM:   5    -0.381364655316E+03    0.18501E-04   -0.62062E-06  3417   0.298E-03    0.306E-02
RMM:   6    -0.381364652013E+03    0.33032E-05   -0.40384E-06  2759   0.269E-03    0.180E-02
RMM:   7    -0.381364652255E+03   -0.24246E-06   -0.32424E-06  2390   0.256E-03
  57 F= -.41705979E+03 E0= -.41673816E+03  d E =-.270635E-05
       N       E                     dE             d eps       ncg     rms          rms(c)
DAV:   1    -0.381364875528E+03   -0.22352E-03   -0.52204E-01  3920   0.127E+00    0.277E-01
RMM:   2    -0.381367908291E+03   -0.30328E-02   -0.18854E-02  3949   0.175E-01    0.464E-01
RMM:   3    -0.381370349752E+03   -0.24415E-02   -0.32263E-03  3962   0.669E-02    0.761E-01
RMM:   4    -0.381365520717E+03    0.48290E-02   -0.76813E-04  3951   0.333E-02    0.187E-01
RMM:   5    -0.381365542193E+03   -0.21477E-04   -0.32726E-04  3942   0.229E-02    0.170E-01
RMM:   6    -0.381365571773E+03   -0.29579E-04   -0.24006E-04  3945   0.197E-02    0.182E-01
RMM:   7    -0.381365442219E+03    0.12955E-03   -0.13974E-04  3945   0.154E-02    0.106E-01
RMM:   8    -0.381365401036E+03    0.41183E-04   -0.69095E-05  3940   0.106E-02    0.513E-02
RMM:   9    -0.381365384498E+03    0.16538E-04   -0.22229E-05  3926   0.630E-03    0.236E-02
RMM:  10    -0.381365381331E+03    0.31664E-05   -0.41399E-06  2881   0.278E-03    0.125E-02
RMM:  11    -0.381365381234E+03    0.97469E-07   -0.98271E-07  2105   0.136E-03
  58 F= -.41706012E+03 E0= -.41673849E+03  d E =-.332540E-03
       N       E                     dE             d eps       ncg     rms          rms(c)
DAV:   1    -0.381365266406E+03    0.11493E-03   -0.35935E-03  4032   0.904E-02    0.211E-02
RMM:   2    -0.381365280444E+03   -0.14039E-04   -0.87813E-05  3949   0.141E-02    0.385E-02
RMM:   3    -0.381365273889E+03    0.65548E-05   -0.61257E-06  3354   0.347E-03    0.176E-02
RMM:   4    -0.381365313622E+03   -0.39733E-04   -0.10329E-05  3718   0.350E-03    0.688E-02
RMM:   5    -0.381365277948E+03    0.35675E-04   -0.72338E-06  3596   0.314E-03    0.306E-02
RMM:   6    -0.381365274606E+03    0.33416E-05   -0.35803E-06  2626   0.250E-03    0.170E-02
RMM:   7    -0.381365273662E+03    0.94400E-06   -0.16479E-06  2176   0.179E-03
  59 F= -.41706014E+03 E0= -.41673850E+03  d E =-.191521E-04
       N       E                     dE             d eps       ncg     rms          rms(c)
DAV:   1    -0.381363676447E+03    0.15982E-02   -0.66888E-01  3920   0.139E+00    0.279E-01
RMM:   2    -0.381367496943E+03   -0.38205E-02   -0.24505E-02  3954   0.202E-01    0.492E-01
RMM:   3    -0.381370859328E+03   -0.33624E-02   -0.36461E-03  3972   0.712E-02    0.840E-01
RMM:   4    -0.381364990738E+03    0.58686E-02   -0.11131E-03  3953   0.399E-02    0.212E-01
RMM:   5    -0.381364817722E+03    0.17302E-03   -0.35554E-04  3943   0.240E-02    0.134E-01
RMM:   6    -0.381364811748E+03    0.59740E-05   -0.22365E-04  3944   0.195E-02    0.126E-01
RMM:   7    -0.381364784590E+03    0.27159E-04   -0.13511E-04  3947   0.150E-02    0.112E-01
RMM:   8    -0.381364754489E+03    0.30101E-04   -0.66362E-05  3939   0.104E-02    0.677E-02
RMM:   9    -0.381364725689E+03    0.28800E-04   -0.31028E-05  3926   0.743E-03    0.267E-02
RMM:  10    -0.381364721554E+03    0.41345E-05   -0.60478E-06  3537   0.325E-03    0.130E-02
RMM:  11    -0.381364721451E+03    0.10277E-06   -0.14389E-06  2120   0.165E-03
  60 F= -.41705989E+03 E0= -.41673827E+03  d E =0.252290E-03
       N       E                     dE             d eps       ncg     rms          rms(c)
DAV:   1    -0.381364704960E+03    0.16594E-04   -0.68716E-03  3920   0.119E-01    0.155E-02
RMM:   2    -0.381364728938E+03   -0.23978E-04   -0.12553E-04  3954   0.182E-02    0.430E-02
RMM:   3    -0.381364721874E+03    0.70642E-05   -0.10462E-05  3906   0.427E-03    0.279E-02
RMM:   4    -0.381364724454E+03   -0.25800E-05   -0.62482E-06  3394   0.299E-03    0.340E-02
RMM:   5    -0.381364717026E+03    0.74281E-05   -0.22027E-06  2229   0.206E-03    0.190E-02
RMM:   6    -0.381364715808E+03    0.12173E-05   -0.11653E-06  2047   0.166E-03    0.108E-02
RMM:   7    -0.381364716061E+03   -0.25228E-06   -0.11463E-06  2047   0.157E-03
  61 F= -.41705989E+03 E0= -.41673827E+03  d E =-.170577E-05
