 vasp.5.4.4.18Apr17-6-g9f103f2a35 (build Nov 06 2023 00:46:14) complex          
  
 executed on             LinuxIFC date 2025.07.24  15:41:55
 running on   64 total cores
 distrk:  each k-point on   64 cores,    1 groups
 distr:  one band on NCORES_PER_BAND=   8 cores,    8 groups


--------------------------------------------------------------------------------------------------------


 INCAR:
 POTCAR:    PAW_PBE Pt 04Feb2005                  
 POTCAR:    PAW_PBE O 08Apr2002                   
 POTCAR:    PAW_PBE Pt 04Feb2005                  
   VRHFIN =Pt: s1d9                                                             
   LEXCH  = PE                                                                  
   EATOM  =   729.1176 eV,   53.5886 Ry                                         
                                                                                
   TITEL  = PAW_PBE Pt 04Feb2005                                                
   LULTRA =        F    use ultrasoft PP ?                                      
   IUNSCR =        1    unscreen: 0-lin 1-nonlin 2-no                           
   RPACOR =    2.330    partial core radius                                     
   POMASS =  195.080; ZVAL   =   10.000    mass and valenz                      
   RCORE  =    2.600    outmost cutoff radius                                   
   RWIGS  =    2.750; RWIGS  =    1.455    wigner-seitz radius (au A)           
   ENMAX  =  230.283; ENMIN  =  172.712 eV                                      
   ICORE  =        3    local potential                                         
   LCOR   =        T    correct aug charges                                     
   LPAW   =        T    paw PP                                                  
   EAUG   =  358.966                                                            
   DEXC   =    0.000                                                            
   RMAX   =    2.658    core radius for proj-oper                               
   RAUG   =    1.300    factor for augmentation sphere                          
   RDEP   =    2.761    radius for radial grids                                 
   RDEPT  =    2.203    core radius for aug-charge                              
                                                                                
   Atomic configuration                                                         
   16 entries                                                                   
     n  l   j            E        occ.                                          
     1  0  0.50    -78401.1885   2.0000                                         
     2  0  0.50    -13770.7750   2.0000                                         
     2  1  1.50    -11931.0468   6.0000                                         
     3  0  0.50     -3234.7234   2.0000                                         
     3  1  1.50     -2699.2216   6.0000                                         
     3  2  2.50     -2119.5714  10.0000                                         
     4  0  0.50      -695.1528   2.0000                                         
     4  1  1.50      -519.6034   6.0000                                         
     4  2  2.50      -306.6786  10.0000                                         
     4  3  3.50       -70.1041  14.0000                                         
     5  0  0.50      -101.7747   2.0000                                         
     5  1  1.50       -55.9873   6.0000                                         
     5  2  2.50        -6.1423   9.0000                                         
     6  0  0.50        -5.6573   1.0000                                         
     6  1  1.50        -6.8029   0.0000                                         
     5  3  2.50        -1.3606   0.0000                                         
   Description                                                                  
     l       E           TYP  RCUT    TYP  RCUT                                 
     2     -6.1423404     23  2.500                                             
     2     -7.5029230     23  2.500                                             
     0     -5.6573207     23  2.500                                             
     0      0.7416693     23  2.500                                             
     1     -2.7211652     23  2.600                                             
     1     20.4087390     23  2.600                                             
     3     -1.3605826     23  2.500                                             
  local pseudopotential read in
  partial core-charges read in
  partial kinetic energy density read in
  atomic valenz-charges read in
  non local Contribution for L=           2  read in
    real space projection operators read in
  non local Contribution for L=           2  read in
    real space projection operators read in
  non local Contribution for L=           0  read in
    real space projection operators read in
  non local Contribution for L=           0  read in
    real space projection operators read in
  non local Contribution for L=           1  read in
    real space projection operators read in
  non local Contribution for L=           1  read in
    real space projection operators read in
    PAW grid and wavefunctions read in
 
   number of l-projection  operators is LMAX  =           6
   number of lm-projection operators is LMMAX =          18
 
 POTCAR:    PAW_PBE O 08Apr2002                   
   VRHFIN =O: s2p4                                                              
   LEXCH  = PE                                                                  
   EATOM  =   432.3788 eV,   31.7789 Ry                                         
                                                                                
   TITEL  = PAW_PBE O 08Apr2002                                                 
   LULTRA =        F    use ultrasoft PP ?                                      
   IUNSCR =        1    unscreen: 0-lin 1-nonlin 2-no                           
   RPACOR =    1.200    partial core radius                                     
   POMASS =   16.000; ZVAL   =    6.000    mass and valenz                      
   RCORE  =    1.520    outmost cutoff radius                                   
   RWIGS  =    1.550; RWIGS  =    0.820    wigner-seitz radius (au A)           
   ENMAX  =  400.000; ENMIN  =  300.000 eV                                      
   ICORE  =        2    local potential                                         
   LCOR   =        T    correct aug charges                                     
   LPAW   =        T    paw PP                                                  
   EAUG   =  605.392                                                            
   DEXC   =    0.000                                                            
   RMAX   =    1.553    core radius for proj-oper                               
   RAUG   =    1.300    factor for augmentation sphere                          
   RDEP   =    1.550    radius for radial grids                                 
   RDEPT  =    1.329    core radius for aug-charge                              
                                                                                
   Atomic configuration                                                         
    4 entries                                                                   
     n  l   j            E        occ.                                          
     1  0  0.50      -514.6923   2.0000                                         
     2  0  0.50       -23.9615   2.0000                                         
     2  1  0.50        -9.0305   4.0000                                         
     3  2  1.50        -9.5241   0.0000                                         
   Description                                                                  
     l       E           TYP  RCUT    TYP  RCUT                                 
     0    -23.9615318     23  1.200                                             
     0     -9.5240782     23  1.200                                             
     1     -9.0304911     23  1.520                                             
     1      8.1634956     23  1.520                                             
     2     -9.5240782      7  1.500                                             
  local pseudopotential read in
  partial core-charges read in
  partial kinetic energy density read in
  kinetic energy density of atom read in
  atomic valenz-charges read in
  non local Contribution for L=           0  read in
    real space projection operators read in
  non local Contribution for L=           0  read in
    real space projection operators read in
  non local Contribution for L=           1  read in
    real space projection operators read in
  non local Contribution for L=           1  read in
    real space projection operators read in
    PAW grid and wavefunctions read in
 
   number of l-projection  operators is LMAX  =           4
   number of lm-projection operators is LMMAX =           8
 
 Optimization of the real space projectors (new method)

 maximal supplied QI-value         = 14.36
 optimisation between [QCUT,QGAM] = [ 10.77, 21.69] = [ 32.49,131.70] Ry 
 Optimized for a Real-space Cutoff    1.46 Angstroem

   l    n(q)    QCUT    max X(q) W(low)/X(q) W(high)/X(q)  e(spline) 
   2      9    10.771    66.195    0.13E-03    0.31E-03    0.27E-06
   2      9    10.771    64.643    0.13E-03    0.32E-03    0.28E-06
   0     10    10.771    95.520    0.41E-04    0.13E-03    0.15E-06
   0     10    10.771    63.403    0.40E-04    0.12E-03    0.14E-06
   1      9    10.771    19.961    0.42E-03    0.19E-03    0.28E-06
   1      9    10.771    13.289    0.35E-03    0.16E-03    0.23E-06
 Optimization of the real space projectors (new method)

 maximal supplied QI-value         = 24.76
 optimisation between [QCUT,QGAM] = [ 10.64, 21.54] = [ 31.73,129.89] Ry 
 Optimized for a Real-space Cutoff    1.23 Angstroem

   l    n(q)    QCUT    max X(q) W(low)/X(q) W(high)/X(q)  e(spline) 
   0      8    10.645    20.381    0.38E-03    0.60E-03    0.15E-06
   0      8    10.645    15.268    0.40E-03    0.65E-03    0.17E-06
   1      7    10.645     5.964    0.30E-03    0.63E-03    0.18E-06
   1      7    10.645     5.382    0.24E-03    0.53E-03    0.16E-06
  PAW_PBE Pt 04Feb2005                  :
 energy of atom  1       EATOM= -729.1176
 kinetic energy error for atom=    0.0051 (will be added to EATOM!!)
  PAW_PBE O 08Apr2002                   :
 energy of atom  2       EATOM= -432.3788
 kinetic energy error for atom=    0.0389 (will be added to EATOM!!)
 
 
 POSCAR: Pt  O                                   
  positions in cartesian coordinates
  No initial velocities read in
 exchange correlation table for  LEXCH =        8
   RHO(1)=    0.500       N(1)  =     2000
   RHO(2)=  100.500       N(2)  =     4000

 VTST: version 3.2, (02/03/18)

 CHAIN: initializing optimizer
 
 OPT: Using VASP QUASI-newton optimizer
 CHAIN: Read ICHAIN            0
 
 POSCAR: Pt  O                                   
  positions in cartesian coordinates
  No initial velocities read in
 


--------------------------------------------------------------------------------------------------------


 ion  position               nearest neighbor table
   1  0.000  0.000  0.000-   9 2.81  25 2.81   5 2.81  29 2.81  34 2.82   4 2.85  28 2.85  36 2.85
                            60 2.85
   2  0.333  0.000  0.092-  30 2.75   3 2.78   6 2.79  26 2.81  10 2.81  28 2.81   4 2.81  33 2.82
                             5 2.85  29 2.85  37 2.85  61 2.85
   3  0.168  0.002  0.182-   8 2.72   5 2.77   2 2.78  32 2.79  29 2.79  11 2.80   7 2.83   6 2.83
                            30 2.84  38 2.85  62 2.85  27 2.85
   4  0.250  0.125  0.000-  12 2.81  28 2.81   2 2.81  10 2.81   5 2.82   9 2.85   1 2.85  33 2.85
                            41 2.85
   5  0.083  0.125  0.092-  38 2.76   3 2.77  29 2.81  13 2.81  11 2.81   1 2.81   9 2.81   4 2.82
                             2 2.85  34 2.85  10 2.85  42 2.85
   6  0.416  0.127  0.182-  10 2.77  14 2.79   2 2.79  39 2.79  37 2.80  30 2.82  43 2.83   3 2.83
                            11 2.83  47 2.87  35 2.87   8 2.88
   7  0.997  0.999  0.272-   8 2.75  40 2.78  31 2.78  64 2.79  62 2.79  15 2.80  38 2.81   3 2.83
                            32 2.85
   8  0.243  0.113  0.274-  65 2.03  32 2.67   3 2.72   7 2.75  11 2.86   6 2.88  15 2.90  39 2.90
                            16 2.94  47 3.11
   9  0.000  0.250  0.000-   1 2.81  17 2.81  13 2.81   5 2.81  42 2.82  12 2.85  36 2.85   4 2.85
                            44 2.85
  10  0.333  0.250  0.092-   6 2.77  11 2.80   2 2.81  18 2.81  12 2.81   4 2.81  14 2.81  41 2.82
                            13 2.85  37 2.85   5 2.85  45 2.85
  11  0.168  0.252  0.182-  19 2.77  13 2.79  10 2.80   3 2.80  15 2.81   5 2.81  16 2.81  14 2.82
                             6 2.83  46 2.86   8 2.86  38 2.87
  12  0.250  0.375  0.000-   4 2.81  20 2.81  18 2.81  10 2.81  13 2.82   9 2.85  17 2.85  41 2.85
                            49 2.85
  13  0.083  0.375  0.092-  46 2.76  11 2.79  19 2.79  21 2.81   5 2.81  17 2.81   9 2.81  12 2.82
                            18 2.85  42 2.85  10 2.85  50 2.85
  14  0.416  0.375  0.183-   6 2.79  22 2.79  10 2.81  18 2.81  11 2.82  19 2.82  45 2.83  51 2.84
                            43 2.84  47 2.86  55 2.86  16 2.96
  15  0.994  0.248  0.271-  48 2.76  16 2.76  38 2.76  40 2.77  46 2.79   7 2.80  11 2.81  23 2.84
                             8 2.90
  16  0.232  0.375  0.277-  65 2.08  66 2.08  15 2.76  23 2.76  19 2.81  11 2.81   8 2.94  24 2.94
                            14 2.96  47 3.16  55 3.16
  17  0.000  0.500  0.000-   9 2.81  25 2.81  21 2.81  13 2.81  50 2.82  20 2.85  44 2.85  12 2.85
                            52 2.85
  18  0.333  0.500  0.092-  22 2.77  19 2.80  10 2.81  26 2.81  12 2.81  20 2.81  14 2.81  49 2.82
                            21 2.85  45 2.85  13 2.85  53 2.85
  19  0.168  0.498  0.182-  11 2.77  13 2.79  18 2.80  27 2.80  23 2.81  21 2.81  16 2.81  14 2.82
                            22 2.83  46 2.86  24 2.86  54 2.87
  20  0.250  0.625  0.000-  12 2.81  28 2.81  26 2.81  18 2.81  21 2.82  17 2.85  25 2.85  49 2.85
                            57 2.85
  21  0.083  0.625  0.092-  54 2.76  27 2.77  29 2.81  13 2.81  19 2.81  25 2.81  17 2.81  20 2.82
                            26 2.85  50 2.85  18 2.85  58 2.85
  22  0.416  0.623  0.182-  18 2.77  14 2.79  26 2.79  63 2.79  53 2.80  30 2.82  51 2.83  27 2.83
                            19 2.83  55 2.87  59 2.87  24 2.88
  23  0.994  0.502  0.271-  48 2.76  16 2.76  54 2.76  56 2.77  46 2.79  31 2.80  19 2.81  15 2.84
                            24 2.90
  24  0.243  0.637  0.274-  66 2.03  32 2.67  27 2.72  31 2.75  19 2.86  22 2.88  23 2.90  63 2.90
                            16 2.94  55 3.11
  25  0.000  0.750  0.000-   1 2.81  17 2.81  21 2.81  29 2.81  58 2.82  20 2.85  52 2.85  28 2.85
                            60 2.85
  26  0.333  0.750  0.092-  30 2.75  27 2.78  22 2.79  18 2.81   2 2.81  28 2.81  20 2.81  57 2.82
                            21 2.85  53 2.85  29 2.85  61 2.85
  27  0.168  0.748  0.182-  24 2.72  21 2.77  26 2.78  32 2.79  29 2.79  19 2.80  31 2.83  22 2.83
                            30 2.84  54 2.85  62 2.85   3 2.85
  28  0.250  0.875  0.000-   4 2.81  20 2.81   2 2.81  26 2.81  29 2.82   1 2.85  25 2.85  33 2.85
                            57 2.85
  29  0.083  0.875  0.092-  62 2.74   3 2.79  27 2.79   5 2.81  21 2.81   1 2.81  25 2.81  28 2.82
                            26 2.85  34 2.85  58 2.85   2 2.85
  30  0.416  0.875  0.181-   2 2.75  26 2.75  63 2.78  39 2.78  61 2.78   6 2.82  22 2.82  32 2.83
                             3 2.84  27 2.84  35 2.86  59 2.86
  31  0.997  0.751  0.272-  24 2.75  56 2.78   7 2.78  64 2.79  62 2.79  23 2.80  54 2.81  27 2.83
                            32 2.85
  32  0.248  0.875  0.272-   8 2.67  24 2.67  27 2.79   3 2.79  30 2.83  31 2.85   7 2.85  63 2.89
                            39 2.89
  33  0.500  0.000  0.000-  41 2.81  57 2.81  37 2.81  61 2.81   2 2.82  28 2.85  36 2.85  60 2.85
                             4 2.85
  34  0.833  0.000  0.092-  38 2.75  62 2.75  35 2.76  58 2.81  42 2.81  60 2.81  36 2.81   1 2.82
                            37 2.85   5 2.85  61 2.85  29 2.85
  35  0.667  1.000  0.180-  61 2.75  37 2.76  34 2.76  39 2.77  59 2.80  43 2.80  40 2.80  64 2.81
                            38 2.85  30 2.86  62 2.86   6 2.87
  36  0.750  0.125  0.000-  44 2.81  60 2.81  34 2.81  42 2.81  37 2.82  41 2.85  33 2.85   1 2.85
                             9 2.85
  37  0.583  0.125  0.092-  35 2.76  43 2.77   6 2.80  45 2.81  61 2.81  41 2.81  33 2.81  36 2.82
                            42 2.85  10 2.85   2 2.85  34 2.85
  38  0.917  0.125  0.180-  42 2.75  34 2.75   5 2.76  15 2.76  46 2.80  62 2.81  40 2.81   7 2.81
                            35 2.85   3 2.85  43 2.86  11 2.87
  39  0.504  0.997  0.271-  63 2.74  35 2.77  30 2.78   6 2.79  47 2.82  64 2.83  40 2.84  32 2.89
                             8 2.90
  40  0.754  0.122  0.272-  47 2.74  15 2.77  64 2.77   7 2.78  35 2.80  38 2.81  43 2.82  48 2.84
                            39 2.84
  41  0.500  0.250  0.000-  33 2.81  49 2.81  45 2.81  37 2.81  10 2.82  12 2.85  44 2.85   4 2.85
                            36 2.85
  42  0.833  0.250  0.092-  46 2.74  38 2.75  34 2.81  50 2.81  43 2.81  36 2.81  44 2.81   9 2.82
                            37 2.85  45 2.85   5 2.85  13 2.85
  43  0.665  0.250  0.182-  47 2.74  37 2.77  45 2.78  48 2.80  35 2.80  42 2.81  51 2.81  40 2.82
                             6 2.83  14 2.84  46 2.86  38 2.86
  44  0.750  0.375  0.000-  36 2.81  52 2.81  50 2.81  42 2.81  45 2.82   9 2.85  49 2.85  41 2.85
                            17 2.85
  45  0.583  0.375  0.092-  51 2.78  43 2.78  37 2.81  53 2.81  41 2.81  49 2.81  44 2.82  14 2.83
                            42 2.85  50 2.85  10 2.85  18 2.85
  46  0.916  0.375  0.180-  42 2.74  50 2.74  13 2.76  15 2.79  23 2.79  48 2.80  38 2.80  54 2.80
                            51 2.86  43 2.86  11 2.86  19 2.86
  47  0.517  0.248  0.274-  65 2.04  43 2.74  40 2.74  48 2.76  39 2.82  55 2.85  14 2.86   6 2.87
                             8 3.11  16 3.16
  48  0.755  0.375  0.272-  47 2.76  55 2.76  15 2.76  23 2.76  46 2.80  51 2.80  43 2.80  40 2.84
                            56 2.84
  49  0.500  0.500  0.000-  41 2.81  57 2.81  53 2.81  45 2.81  18 2.82  20 2.85  52 2.85  12 2.85
                            44 2.85
  50  0.833  0.500  0.092-  46 2.74  54 2.75  42 2.81  58 2.81  51 2.81  44 2.81  52 2.81  17 2.82
                            45 2.85  53 2.85  13 2.85  21 2.85
  51  0.665  0.500  0.182-  55 2.74  53 2.77  45 2.78  48 2.80  59 2.80  50 2.81  43 2.81  56 2.82
                            22 2.83  14 2.84  46 2.86  54 2.86
  52  0.750  0.625  0.000-  44 2.81  60 2.81  58 2.81  50 2.81  53 2.82  17 2.85  57 2.85  49 2.85
                            25 2.85
  53  0.583  0.625  0.092-  59 2.76  51 2.77  22 2.80  45 2.81  61 2.81  49 2.81  57 2.81  52 2.82
                            50 2.85  58 2.85  18 2.85  26 2.85
  54  0.917  0.625  0.180-  50 2.75  58 2.75  21 2.76  23 2.76  46 2.80  62 2.81  56 2.81  31 2.81
                            59 2.85  27 2.85  51 2.86  19 2.87
  55  0.517  0.502  0.274-  66 2.04  51 2.74  56 2.74  48 2.76  63 2.82  47 2.85  14 2.86  22 2.87
                            24 3.11  16 3.16
  56  0.754  0.628  0.272-  55 2.74  23 2.77  64 2.77  31 2.78  59 2.80  54 2.81  51 2.82  48 2.84
                            63 2.84
  57  0.500  0.750  0.000-  33 2.81  49 2.81  53 2.81  61 2.81  26 2.82  52 2.85  20 2.85  60 2.85
                            28 2.85
  58  0.833  0.750  0.092-  54 2.75  62 2.75  59 2.76  50 2.81  34 2.81  60 2.81  52 2.81  25 2.82
                            21 2.85  53 2.85  61 2.85  29 2.85
  59  0.667  0.750  0.180-  61 2.75  53 2.76  58 2.76  63 2.77  35 2.80  51 2.80  56 2.80  64 2.81
                            54 2.85  30 2.86  62 2.86  22 2.87
  60  0.750  0.875  0.000-  36 2.81  52 2.81  34 2.81  58 2.81  61 2.82  33 2.85  57 2.85   1 2.85
                            25 2.85
  61  0.583  0.875  0.092-  35 2.75  59 2.75  30 2.78  53 2.81  37 2.81  57 2.81  33 2.81  60 2.82
                             2 2.85  58 2.85  26 2.85  34 2.85
  62  0.919  0.875  0.180-  29 2.74  34 2.75  58 2.75  31 2.79   7 2.79  38 2.81  54 2.81  64 2.82
                            27 2.85   3 2.85  59 2.86  35 2.86
  63  0.504  0.753  0.271-  39 2.74  59 2.77  30 2.78  22 2.79  55 2.82  64 2.83  56 2.84  32 2.89
                            24 2.90
  64  0.753  0.875  0.272-  40 2.77  56 2.77   7 2.79  31 2.79  35 2.81  59 2.81  62 2.82  39 2.83
                            63 2.83
  65  0.340  0.241  0.316-   8 2.03  47 2.04  16 2.08
  66  0.340  0.509  0.316-  24 2.03  55 2.04  16 2.08
 

IMPORTANT INFORMATION: All symmetrisations will be switched off!
NOSYMM: (Re-)initialisation of all symmetry stuff for point group C_1.

 
 
 KPOINTS: K-Spacing Value to Generate K-Mesh: 0.03

Automatic generation of k-mesh.
Space group operators:
 irot       det(A)        alpha          n_x          n_y          n_z        tau_x        tau_y        tau_z
    1     1.000000     0.000000     1.000000     0.000000     0.000000     0.000000     0.000000     0.000000
 
 Subroutine IBZKPT returns following result:
 ===========================================
 
 Found      5 irreducible k-points:
 
 Following reciprocal coordinates:
            Coordinates               Weight
  0.000000  0.000000  0.000000      1.000000
  0.333333  0.000000  0.000000      2.000000
  0.000000  0.333333  0.000000      2.000000
  0.333333  0.333333  0.000000      2.000000
 -0.333333  0.333333  0.000000      2.000000
 
 Following cartesian coordinates:
            Coordinates               Weight
  0.000000  0.000000  0.000000      1.000000
  0.033629  0.000000  0.000000      2.000000
  0.000000  0.029706  0.000000      2.000000
  0.033629  0.029706  0.000000      2.000000
 -0.033629  0.029706  0.000000      2.000000
 


--------------------------------------------------------------------------------------------------------




 Dimension of arrays:
   k-points           NKPTS =      5   k-points in BZ     NKDIM =      5   number of bands    NBANDS=    392
   number of dos      NEDOS =    301   number of ions     NIONS =     66
   non local maximal  LDIM  =      6   non local SUM 2l+1 LMDIM =     18
   total plane-waves  NPLWV = 453600
   max r-space proj   IRMAX =   2198   max aug-charges    IRDMAX=  10079
   dimension x,y,z NGX =    54 NGY =   60 NGZ =  140
   dimension x,y,z NGXF=   108 NGYF=  120 NGZF=  280
   support grid    NGXF=   108 NGYF=  120 NGZF=  280
   ions per type =              64   2
   NGX,Y,Z   is equivalent  to a cutoff of   9.06,  8.89,  9.31 a.u.
   NGXF,Y,Z  is equivalent  to a cutoff of  18.11, 17.78, 18.62 a.u.

 SYSTEM =  Pt111 O2 adsorption system              
 POSCAR =  Pt  O                                   

 Startparameter for this run:
   NWRITE =      2    write-flag & timer
   PREC   = normal    normal or accurate (medium, high low for compatibility)
   ISTART =      0    job   : 0-new  1-cont  2-samecut
   ICHARG =      1    charge: 1-file 2-atom 10-const
   ISPIN  =      1    spin polarized calculation?
   LNONCOLLINEAR =      F non collinear calculations
   LSORBIT =      F    spin-orbit coupling
   INIWAV =      1    electr: 0-lowe 1-rand  2-diag
   LASPH  =      F    aspherical Exc in radial PAW
   METAGGA=      F    non-selfconsistent MetaGGA calc.

 Electronic Relaxation 1
   ENCUT  =  450.0 eV  33.07 Ry    5.75 a.u.  17.14 19.41 43.24*2*pi/ulx,y,z
   ENINI  =  450.0     initial cutoff
   ENAUG  =  605.4 eV  augmentation charge cutoff
   NELM   =     60;   NELMIN=  2; NELMDL= -5     # of ELM steps 
   EDIFF  = 0.1E-05   stopping-criterion for ELM
   LREAL  =      T    real-space projection
   NLSPLINE    = F    spline interpolate recip. space projectors
   LCOMPAT=      F    compatible to vasp.4.4
   GGA_COMPAT  = T    GGA compatible to vasp.4.4-vasp.4.6
   LMAXPAW     = -100 max onsite density
   LMAXMIX     =    2 max onsite mixed and CHGCAR
   VOSKOWN=      0    Vosko Wilk Nusair interpolation
   ROPT   =   -0.00050  -0.00050
 Ionic relaxation
   EDIFFG = -.2E-01   stopping-criterion for IOM
   NSW    =    200    number of steps for IOM
   NBLOCK =      1;   KBLOCK =    200    inner block; outer block 
   IBRION =      1    ionic relax: 0-MD 1-quasi-New 2-CG
   NFREE  =      0    steps in history (QN), initial steepest desc. (CG)
   ISIF   =      2    stress and relaxation
   IWAVPR =     11    prediction:  0-non 1-charg 2-wave 3-comb
   ISYM   =      0    0-nonsym 1-usesym 2-fastsym
   LCORR  =      T    Harris-Foulkes like correction to forces

   POTIM  = 0.2000    time-step for ionic-motion
   TEIN   =    0.0    initial temperature
   TEBEG  =    0.0;   TEEND  =   0.0 temperature during run
   SMASS  =  -3.00    Nose mass-parameter (am)
   estimated Nose-frequenzy (Omega)   =  0.10E-29 period in steps =****** mass=  -0.225E-26a.u.
   SCALEE = 1.0000    scale energy and forces
   NPACO  =    256;   APACO  = 16.0  distance and # of slots for P.C.
   PSTRESS=    0.0 pullay stress

  Mass of Ions in am
   POMASS = 195.08 16.00
  Ionic Valenz
   ZVAL   =  10.00  6.00
  Atomic Wigner-Seitz radii
   RWIGS  =  -1.00 -1.00
  virtual crystal weights 
   VCA    =   1.00  1.00
   NELECT =     652.0000    total number of electrons
   NUPDOWN=      -1.0000    fix difference up-down

 DOS related values:
   EMIN   =  10.00;   EMAX   =-10.00  energy-range for DOS
   EFERMI =   0.00
   ISMEAR =     0;   SIGMA  =   0.10  broadening in eV -4-tet -1-fermi 0-gaus

 Electronic relaxation 2 (details)
   IALGO  =     68    algorithm
   LDIAG  =      T    sub-space diagonalisation (order eigenvalues)
   LSUBROT=      F    optimize rotation matrix (better conditioning)
   TURBO    =      0    0=normal 1=particle mesh
   IRESTART =      0    0=no restart 2=restart with 2 vectors
   NREBOOT  =      0    no. of reboots
   NMIN     =      0    reboot dimension
   EREF     =   0.00    reference energy to select bands
   IMIX   =      4    mixing-type and parameters
     AMIX     =   0.40;   BMIX     =  1.00
     AMIX_MAG =   1.60;   BMIX_MAG =  1.00
     AMIN     =   0.10
     WC   =   100.;   INIMIX=   1;  MIXPRE=   1;  MAXMIX= -45

 Intra band minimization:
   WEIMIN = 0.0010     energy-eigenvalue tresh-hold
   EBREAK =  0.64E-09  absolut break condition
   DEPER  =   0.30     relativ break condition  

   TIME   =   0.40     timestep for ELM

  volume/ion in A,a.u.               =      42.13       284.31
  Fermi-wavevector in a.u.,A,eV,Ry     =   1.009506  1.907691 13.865743  1.019103
  Thomas-Fermi vector in A             =   2.142439
 
 Write flags
   LWAVE        =      F    write WAVECAR
   LDOWNSAMPLE  =      F    k-point downsampling of WAVECAR
   LCHARG       =      F    write CHGCAR
   LVTOT        =      F    write LOCPOT, total local potential
   LVHAR        =      F    write LOCPOT, Hartree potential only
   LELF         =      F    write electronic localiz. function (ELF)
   LORBIT       =      0    0 simple, 1 ext, 2 COOP (PROOUT), +10 PAW based schemes


 Dipole corrections
   LMONO  =      F    monopole corrections only (constant potential shift)
   LDIPOL =      T    correct potential (dipole corrections)
   IDIPOL =      3    1-x, 2-y, 3-z, 4-all directions 
   EPSILON=  1.0000000 bulk dielectric constant

 Exchange correlation treatment:
   GGA     =    PE    GGA type
   LEXCH   =     8    internal setting for exchange type
   VOSKOWN=      0    Vosko Wilk Nusair interpolation
   LHFCALC =     F    Hartree Fock is set to
   LHFONE  =     F    Hartree Fock one center treatment
   AEXX    =    0.0000 exact exchange contribution

 Linear response parameters
   LEPSILON=     F    determine dielectric tensor
   LRPA    =     F    only Hartree local field effects (RPA)
   LNABLA  =     F    use nabla operator in PAW spheres
   LVEL    =     F    velocity operator in full k-point grid
   LINTERFAST=   F  fast interpolation
   KINTER  =     0    interpolate to denser k-point grid
   CSHIFT  =0.1000    complex shift for real part using Kramers Kronig
   OMEGAMAX=  -1.0    maximum frequency
   DEG_THRESHOLD= 0.2000000E-02 threshold for treating states as degnerate
   RTIME   =   -0.100 relaxation time in fs
  (WPLASMAI=    0.000 imaginary part of plasma frequency in eV, 0.658/RTIME)
   DFIELD  = 0.0000000 0.0000000 0.0000000 field for delta impulse in time
 
 Orbital magnetization related:
   ORBITALMAG=     F  switch on orbital magnetization
   LCHIMAG   =     F  perturbation theory with respect to B field
   DQ        =  0.001000  dq finite difference perturbation B field
   LLRAUG    =     F  two centre corrections for induced B field



--------------------------------------------------------------------------------------------------------


 quasi-Newton-method for relaxation of ions
   using selective dynamics as specified on POSCAR
   WARNING: If single coordinates had been selected the selection of coordinates
            is made according to the corresponding   d i r e c t   coordinates!
            Don't support selection of single cartesian coordinates -- sorry ...
  !
 charge density and potential will be updated during run
 non-spin polarized calculation
 RMM-DIIS sequential band-by-band and
  variant of blocked Davidson during initial phase
 perform sub-space diagonalisation
    before iterative eigenvector-optimisation
 modified Broyden-mixing scheme, WC =      100.0
 initial mixing is a Kerker type mixing with AMIX =  0.4000 and BMIX =      1.0000
 Hartree-type preconditioning will be used
 using additional bands           66
 real space projection scheme for non local part
 use partial core corrections
 calculate Harris-corrections to forces 
   (improved forces if not selfconsistent)
 use gradient corrections 
 use of overlap-Matrix (Vanderbilt PP)
 Gauss-broadening in eV      SIGMA  =   0.10


--------------------------------------------------------------------------------------------------------


  energy-cutoff  :      450.00
  volume of cell :     2780.64
      direct lattice vectors                 reciprocal lattice vectors
     9.912147860  0.000000000  0.000000000     0.100886308  0.000000000  0.000000000
     0.000000000 11.221139680  0.000000000     0.000000000  0.089117508  0.000000000
     0.000000000  0.000000000 25.000000000     0.000000000  0.000000000  0.040000000

  length of vectors
     9.912147860 11.221139680 25.000000000     0.100886308  0.089117508  0.040000000


 
 k-points in units of 2pi/SCALE and weight: K-Spacing Value to Generate K-Mesh: 0.03
   0.00000000  0.00000000  0.00000000       0.111
   0.03362877  0.00000000  0.00000000       0.222
   0.00000000  0.02970584  0.00000000       0.222
   0.03362877  0.02970584  0.00000000       0.222
  -0.03362877  0.02970584  0.00000000       0.222
 
 k-points in reciprocal lattice and weights: K-Spacing Value to Generate K-Mesh: 0.03
   0.00000000  0.00000000  0.00000000       0.111
   0.33333333  0.00000000  0.00000000       0.222
   0.00000000  0.33333333  0.00000000       0.222
   0.33333333  0.33333333  0.00000000       0.222
  -0.33333333  0.33333333  0.00000000       0.222
 
 position of ions in fractional coordinates (direct lattice) 
   0.00000000  0.00000000  0.00000000
   0.33333333  0.00000000  0.09162022
   0.16778973  0.00217932  0.18159612
   0.25000000  0.12500000  0.00000000
   0.08333333  0.12500000  0.09162022
   0.41606473  0.12669221  0.18183214
   0.99677325  0.99891067  0.27200820
   0.24252794  0.11282549  0.27395545
   0.00000000  0.25000000  0.00000000
   0.33333333  0.25000000  0.09162022
   0.16812807  0.25175608  0.18248330
   0.25000000  0.37500000  0.00000000
   0.08333333  0.37500000  0.09162022
   0.41601469  0.37499763  0.18344835
   0.99371623  0.24845743  0.27092828
   0.23236383  0.37499781  0.27703626
   0.00000000  0.50000000  0.00000000
   0.33333333  0.50000000  0.09162022
   0.16812478  0.49825134  0.18248694
   0.25000000  0.62500000  0.00000000
   0.08333333  0.62500000  0.09162022
   0.41606560  0.62331323  0.18183588
   0.99371613  0.50153945  0.27093099
   0.24252504  0.63717443  0.27395684
   0.00000000  0.75000000  0.00000000
   0.33333333  0.75000000  0.09162022
   0.16778942  0.74782524  0.18159773
   0.25000000  0.87500000  0.00000000
   0.08333333  0.87500000  0.09162022
   0.41589243  0.87500524  0.18061039
   0.99677517  0.75110299  0.27201045
   0.24759730  0.87500268  0.27203885
   0.50000000  0.00000000  0.00000000
   0.83333333  0.00000000  0.09162022
   0.66729981  0.99986083  0.18045745
   0.75000000  0.12500000  0.00000000
   0.58333333  0.12500000  0.09162022
   0.91679062  0.12536530  0.18018247
   0.50399364  0.99727765  0.27055916
   0.75387281  0.12188499  0.27215788
   0.50000000  0.25000000  0.00000000
   0.83333333  0.25000000  0.09162022
   0.66480979  0.24970856  0.18185291
   0.75000000  0.37500000  0.00000000
   0.58333333  0.37500000  0.09162022
   0.91552682  0.37499941  0.17992497
   0.51671355  0.24807536  0.27445273
   0.75489049  0.37499767  0.27200031
   0.50000000  0.50000000  0.00000000
   0.83333333  0.50000000  0.09162022
   0.66480857  0.50028643  0.18185435
   0.75000000  0.62500000  0.00000000
   0.58333333  0.62500000  0.09162022
   0.91679142  0.62463695  0.18018714
   0.51671242  0.50192504  0.27445243
   0.75387324  0.62812106  0.27215929
   0.50000000  0.75000000  0.00000000
   0.83333333  0.75000000  0.09162022
   0.66730269  0.75014201  0.18045897
   0.75000000  0.87500000  0.00000000
   0.58333333  0.87500000  0.09162022
   0.91923090  0.87500171  0.18005099
   0.50399182  0.75273165  0.27055682
   0.75315286  0.87500651  0.27162374
   0.33962561  0.24141810  0.31610366
   0.33962620  0.50857962  0.31610412
 
 position of ions in cartesian coordinates  (Angst):
   0.00000000  0.00000000  0.00000000
   3.30404930  0.00000000  2.29050552
   1.66315658  0.02445450  4.53990310
   2.47803697  1.40264246  0.00000000
   0.82601234  1.40264246  2.29050552
   4.12409511  1.42163103  4.54580342
   9.88016380 11.20891612  6.80020488
   2.40397276  1.26603060  6.84888617
   0.00000000  2.80528492  0.00000000
   3.30404930  2.80528492  2.29050552
   1.66651027  2.82499014  4.56208261
   2.47803697  4.20792738  0.00000000
   0.82601234  4.20792738  2.29050552
   4.12359908  4.20790074  4.58620887
   9.84986224  2.78797548  6.77320698
   2.30322469  4.20790285  6.92590646
   0.00000000  5.61056984  0.00000000
   3.30404930  5.61056984  2.29050552
   1.66647764  5.59094787  4.56217359
   2.47803697  7.01321230  0.00000000
   0.82601234  7.01321230  2.29050552
   4.12410371  6.99428483  4.54589712
   9.84986126  5.62784419  6.77327481
   2.40394407  7.14982330  6.84892098
   0.00000000  8.41585476  0.00000000
   3.30404930  8.41585476  2.29050552
   1.66315354  8.39145149  4.53994318
   2.47803697  9.81849722  0.00000000
   0.82601234  9.81849722  2.29050552
   4.12238723  9.81855597  4.51525971
   9.88018289  8.42823160  6.80026137
   2.45422101  9.81852732  6.80097131
   4.95607393  0.00000000  0.00000000
   8.26012323  0.00000000  2.29050552
   6.61437442 11.21957805  4.51143624
   7.43411090  1.40264246  0.00000000
   5.78208627  1.40264246  2.29050552
   9.08736422  1.40674150  4.50456164
   4.99565943 11.19059177  6.76397909
   7.47249879  1.36768855  6.80394709
   4.95607393  2.80528492  0.00000000
   8.26012323  2.80528492  2.29050552
   6.58969297  2.80201459  4.54632265
   7.43411090  4.20792738  0.00000000
   5.78208627  4.20792738  2.29050552
   9.07483720  4.20792074  4.49812422
   5.12174114  2.78368823  6.86131817
   7.48258619  4.20790122  6.80000778
   4.95607393  5.61056984  0.00000000
   8.26012323  5.61056984  2.29050552
   6.58968083  5.61378390  4.54635876
   7.43411090  7.01321230  0.00000000
   5.78208627  7.01321230  2.29050552
   9.08737210  7.00913841  4.50467855
   5.12172990  5.63217100  6.86131082
   7.47250302  7.04823417  6.80398223
   4.95607393  8.41585476  0.00000000
   8.26012323  8.41585476  2.29050552
   6.61440294  8.41744828  4.51147419
   7.43411090  9.81849722  0.00000000
   5.78208627  9.81849722  2.29050552
   9.11155258  9.81851641  4.50127482
   4.99564141  8.44650701  6.76392039
   7.46536254  9.81857025  6.79059359
   3.36641927  2.70898619  7.90259148
   3.36642508  5.70684296  7.90260305
 


--------------------------------------------------------------------------------------------------------


 k-point  1 :   0.0000 0.0000 0.0000  plane waves:   60271
 k-point  2 :   0.3333 0.0000 0.0000  plane waves:   60268
 k-point  3 :   0.0000 0.3333 0.0000  plane waves:   60265
 k-point  4 :   0.3333 0.3333 0.0000  plane waves:   60311
 k-point  5 :  -0.3333 0.3333 0.0000  plane waves:   60311

 maximum and minimum number of plane-waves per node :      7570     7505

 maximum number of plane-waves:     60311
 maximum index in each direction: 
   IXMAX=   17   IYMAX=   19   IZMAX=   43
   IXMIN=  -17   IYMIN=  -19   IZMIN=  -43


 real space projection operators:
  total allocation   :      18857.62 KBytes
  max/ min on nodes  :       2467.25       2070.09


 parallel 3D FFT for wavefunctions:
    minimum data exchange during FFTs selected (reduces bandwidth)
 parallel 3D FFT for charge:
    minimum data exchange during FFTs selected (reduces bandwidth)


 total amount of memory used by VASP MPI-rank0    76013. kBytes
=======================================================================

   base      :      30000. kBytes
   nonlr-proj:       5456. kBytes
   fftplans  :       3984. kBytes
   grid      :       6141. kBytes
   one-center:        139. kBytes
   wavefun   :      30293. kBytes
 
     INWAV:  cpu time    0.0000: real time    0.0002
 Broyden mixing: mesh for mixing (old mesh)
   NGX = 35   NGY = 39   NGZ = 87
  (NGX  =108   NGY  =120   NGZ  =280)
  gives a total of 118755 points

 initial charge density was supplied:
 charge density of overlapping atoms calculated
 number of electron     652.0000000 magnetization 
 keeping initial charge density in first step


--------------------------------------------------------------------------------------------------------


 Maximum index for non-local projection operator          322
 Maximum index for augmentation-charges          547 (set IRDMAX)


--------------------------------------------------------------------------------------------------------


 First call to EWALD:  gamma=   0.126
 Maximum number of real-space cells 4x 3x 2
 Maximum number of reciprocal cells 2x 2x 5

    FEWALD:  cpu time    0.0024: real time    0.0026


--------------------------------------- Iteration      1(   1)  ---------------------------------------


    POTLOK:  cpu time    0.0333: real time    0.0741
    SETDIJ:  cpu time    0.0039: real time    0.0042
     EDDAV:  cpu time    8.9219: real time    8.9332
       DOS:  cpu time    0.0008: real time    0.0008
    --------------------------------------------
      LOOP:  cpu time    8.9599: real time    9.0123

 eigenvalue-minimisations  :  3920
 total energy-change (2. order) : 0.4280581E+04  (-0.2658756E+05)
 number of electron     652.0000000 magnetization 
 augmentation part      652.0000000 magnetization 

 DIPCOR: dipole corrections for dipol
 direction  3 min pos   173,
 dipolmoment           0.000000      0.000000     -0.000230 electrons x Angstroem
 Tr[quadrupol]    -12612.266160

 energy correction for charged system         0.000000 eV
 dipol+quadrupol energy correction           -0.000000 eV
 added-field ion interaction          0.006201 eV  (added to PSCEN)


 Free energy of the ion-electron system (eV)
  ---------------------------------------------------
  alpha Z        PSCENC =      1437.36988614
  Ewald energy   TEWEN  =    243198.77074701
  -Hartree energ DENC   =   -293087.36198070
  -exchange      EXHF   =         0.00000000
  -V(xc)+E(xc)   XCENC  =       268.47970236
  PAW double counting   =     45245.00522118   -43438.47517393
  entropy T*S    EENTRO =        -0.17960881
  eigenvalues    EBANDS =      3129.09483712
  atomic energy  EATOM  =     47527.87699037
  Solvation  Ediel_sol  =         0.00000000
  ---------------------------------------------------
  free energy    TOTEN  =      4280.58062075 eV

  energy without entropy =     4280.76022955  energy(sigma->0) =     4280.67042515


--------------------------------------------------------------------------------------------------------




--------------------------------------- Iteration      1(   2)  ---------------------------------------


     EDDAV:  cpu time   10.1264: real time   10.1470
       DOS:  cpu time    0.0007: real time    0.0007
    --------------------------------------------
      LOOP:  cpu time   10.1271: real time   10.1477

 eigenvalue-minimisations  :  4640
 total energy-change (2. order) :-0.4335545E+04  (-0.4001011E+04)
 number of electron     652.0000000 magnetization 
 augmentation part      652.0000000 magnetization 

 DIPCOR: dipole corrections for dipol
 direction  3 min pos   173,
 dipolmoment           0.000000      0.000000     -0.000230 electrons x Angstroem
 Tr[quadrupol]    -12612.266160

 energy correction for charged system         0.000000 eV
 dipol+quadrupol energy correction           -0.000000 eV
 added-field ion interaction          0.006201 eV  (added to PSCEN)


 Free energy of the ion-electron system (eV)
  ---------------------------------------------------
  alpha Z        PSCENC =      1437.36988614
  Ewald energy   TEWEN  =    243198.77074701
  -Hartree energ DENC   =   -293087.36198070
  -exchange      EXHF   =         0.00000000
  -V(xc)+E(xc)   XCENC  =       268.47970236
  PAW double counting   =     45245.00522118   -43438.47517393
  entropy T*S    EENTRO =        -0.25482042
  eigenvalues    EBANDS =     -1206.37531015
  atomic energy  EATOM  =     47527.87699037
  Solvation  Ediel_sol  =         0.00000000
  ---------------------------------------------------
  free energy    TOTEN  =       -54.96473814 eV

  energy without entropy =      -54.70991772  energy(sigma->0) =      -54.83732793


--------------------------------------------------------------------------------------------------------




--------------------------------------- Iteration      1(   3)  ---------------------------------------


     EDDAV:  cpu time   10.1305: real time   10.1432
       DOS:  cpu time    0.0007: real time    0.0007
    --------------------------------------------
      LOOP:  cpu time   10.1312: real time   10.1439

 eigenvalue-minimisations  :  4648
 total energy-change (2. order) :-0.3363217E+03  (-0.3033588E+03)
 number of electron     652.0000000 magnetization 
 augmentation part      652.0000000 magnetization 

 DIPCOR: dipole corrections for dipol
 direction  3 min pos   173,
 dipolmoment           0.000000      0.000000     -0.000230 electrons x Angstroem
 Tr[quadrupol]    -12612.266160

 energy correction for charged system         0.000000 eV
 dipol+quadrupol energy correction           -0.000000 eV
 added-field ion interaction          0.006201 eV  (added to PSCEN)


 Free energy of the ion-electron system (eV)
  ---------------------------------------------------
  alpha Z        PSCENC =      1437.36988614
  Ewald energy   TEWEN  =    243198.77074701
  -Hartree energ DENC   =   -293087.36198070
  -exchange      EXHF   =         0.00000000
  -V(xc)+E(xc)   XCENC  =       268.47970236
  PAW double counting   =     45245.00522118   -43438.47517393
  entropy T*S    EENTRO =        -0.53446327
  eigenvalues    EBANDS =     -1542.41731949
  atomic energy  EATOM  =     47527.87699037
  Solvation  Ediel_sol  =         0.00000000
  ---------------------------------------------------
  free energy    TOTEN  =      -391.28639033 eV

  energy without entropy =     -390.75192706  energy(sigma->0) =     -391.01915870


--------------------------------------------------------------------------------------------------------




--------------------------------------- Iteration      1(   4)  ---------------------------------------


     EDDAV:  cpu time   10.9474: real time   10.9598
       DOS:  cpu time    0.0009: real time    0.0009
    --------------------------------------------
      LOOP:  cpu time   10.9483: real time   10.9607

 eigenvalue-minimisations  :  5120
 total energy-change (2. order) :-0.1746799E+02  (-0.1631169E+02)
 number of electron     652.0000000 magnetization 
 augmentation part      652.0000000 magnetization 

 DIPCOR: dipole corrections for dipol
 direction  3 min pos   173,
 dipolmoment           0.000000      0.000000     -0.000230 electrons x Angstroem
 Tr[quadrupol]    -12612.266160

 energy correction for charged system         0.000000 eV
 dipol+quadrupol energy correction           -0.000000 eV
 added-field ion interaction          0.006201 eV  (added to PSCEN)


 Free energy of the ion-electron system (eV)
  ---------------------------------------------------
  alpha Z        PSCENC =      1437.36988614
  Ewald energy   TEWEN  =    243198.77074701
  -Hartree energ DENC   =   -293087.36198070
  -exchange      EXHF   =         0.00000000
  -V(xc)+E(xc)   XCENC  =       268.47970236
  PAW double counting   =     45245.00522118   -43438.47517393
  entropy T*S    EENTRO =        -0.56514996
  eigenvalues    EBANDS =     -1559.85462719
  atomic energy  EATOM  =     47527.87699037
  Solvation  Ediel_sol  =         0.00000000
  ---------------------------------------------------
  free energy    TOTEN  =      -408.75438471 eV

  energy without entropy =     -408.18923476  energy(sigma->0) =     -408.47180974


--------------------------------------------------------------------------------------------------------




--------------------------------------- Iteration      1(   5)  ---------------------------------------


     EDDAV:  cpu time   10.5338: real time   10.5502
       DOS:  cpu time    0.0008: real time    0.0008
    CHARGE:  cpu time    0.1587: real time    0.1590
    MIXING:  cpu time    0.0017: real time    0.0018
    --------------------------------------------
      LOOP:  cpu time   10.6950: real time   10.7118

 eigenvalue-minimisations  :  4888
 total energy-change (2. order) :-0.4629018E+00  (-0.4583542E+00)
 number of electron     651.9999962 magnetization 
 augmentation part      187.7949791 magnetization 

 DIPCOR: dipole corrections for dipol
 direction  3 min pos   173,
 dipolmoment           0.000000      0.000000     -0.000230 electrons x Angstroem
 Tr[quadrupol]    -12612.266160

 energy correction for charged system         0.000000 eV
 dipol+quadrupol energy correction           -0.000000 eV
 added-field ion interaction          0.006201 eV  (added to PSCEN)


 Broyden mixing:
  rms(total) = 0.82384E+01    rms(broyden)= 0.82383E+01
  rms(prec ) = 0.83435E+01
  weight for this iteration     100.00

 Free energy of the ion-electron system (eV)
  ---------------------------------------------------
  alpha Z        PSCENC =      1437.36988614
  Ewald energy   TEWEN  =    243198.77074701
  -Hartree energ DENC   =   -293087.36198070
  -exchange      EXHF   =         0.00000000
  -V(xc)+E(xc)   XCENC  =       268.47970236
  PAW double counting   =     45245.00522118   -43438.47517393
  entropy T*S    EENTRO =        -0.56626061
  eigenvalues    EBANDS =     -1560.31641829
  atomic energy  EATOM  =     47527.87699037
  Solvation  Ediel_sol  =         0.00000000
  ---------------------------------------------------
  free energy    TOTEN  =      -409.21728647 eV

  energy without entropy =     -408.65102586  energy(sigma->0) =     -408.93415617


--------------------------------------------------------------------------------------------------------




--------------------------------------- Iteration      1(   6)  ---------------------------------------


    POTLOK:  cpu time    0.0314: real time    0.0317
    SETDIJ:  cpu time    0.0036: real time    0.0036
    EDDIAG:  cpu time    1.2896: real time    1.2912
  RMM-DIIS:  cpu time    3.7123: real time    3.7165
    ORTHCH:  cpu time    0.6167: real time    0.6170
       DOS:  cpu time    0.0009: real time    0.0009
    CHARGE:  cpu time    0.1547: real time    0.1549
    MIXING:  cpu time    0.0012: real time    0.0014
    --------------------------------------------
      LOOP:  cpu time    5.8105: real time    5.8173

 eigenvalue-minimisations  :  3936
 total energy-change (2. order) : 0.1073360E+02  (-0.8450434E+01)
 number of electron     652.0000013 magnetization 
 augmentation part      198.3088140 magnetization 

 DIPCOR: dipole corrections for dipol
 direction  3 min pos   190,
 dipolmoment           0.000000      0.000000     -0.433152 electrons x Angstroem
 Tr[quadrupol]    -12602.311573

 energy correction for charged system         0.000000 eV
 dipol+quadrupol energy correction           -0.006105 eV
 added-field ion interaction        -16.230530 eV  (added to PSCEN)


 Broyden mixing:
  rms(total) = 0.64672E+01    rms(broyden)= 0.64669E+01
  rms(prec ) = 0.73047E+01
  weight for this iteration     100.00

 eigenvalues of (default mixing * dielectric matrix)
  average eigenvalue GAMMA=   0.9922
  0.9922

 Free energy of the ion-electron system (eV)
  ---------------------------------------------------
  alpha Z        PSCENC =      1421.12704969
  Ewald energy   TEWEN  =    243198.77074701
  -Hartree energ DENC   =   -292364.02240696
  -exchange      EXHF   =         0.00000000
  -V(xc)+E(xc)   XCENC  =       253.55909550
  PAW double counting   =     49670.12760734   -47955.51771809
  entropy T*S    EENTRO =        -0.48296127
  eigenvalues    EBANDS =     -2149.92208781
  atomic energy  EATOM  =     47527.87699037
  Solvation  Ediel_sol  =         0.00000000
  ---------------------------------------------------
  free energy    TOTEN  =      -398.48368422 eV

  energy without entropy =     -398.00072295  energy(sigma->0) =     -398.24220359


--------------------------------------------------------------------------------------------------------




--------------------------------------- Iteration      1(   7)  ---------------------------------------


    POTLOK:  cpu time    0.0296: real time    0.0419
    SETDIJ:  cpu time    0.0036: real time    0.0036
    EDDIAG:  cpu time    1.2858: real time    1.2870
  RMM-DIIS:  cpu time    4.2246: real time    4.2313
    ORTHCH:  cpu time    0.6165: real time    0.6168
       DOS:  cpu time    0.0009: real time    0.0009
    CHARGE:  cpu time    0.1559: real time    0.1561
    MIXING:  cpu time    0.0010: real time    0.0010
    --------------------------------------------
      LOOP:  cpu time    6.3179: real time    6.3387

 eigenvalue-minimisations  :  4410
 total energy-change (2. order) :-0.2721661E+03  (-0.3873502E+02)
 number of electron     651.9999997 magnetization 
 augmentation part      191.4781963 magnetization 

 DIPCOR: dipole corrections for dipol
 direction  3 min pos   184,
 dipolmoment           0.000000      0.000000      5.843890 electrons x Angstroem
 Tr[quadrupol]    -12623.847482

 energy correction for charged system         0.000000 eV
 dipol+quadrupol energy correction           -1.111279 eV
 added-field ion interaction         86.134785 eV  (added to PSCEN)


 Broyden mixing:
  rms(total) = 0.11010E+02    rms(broyden)= 0.11010E+02
  rms(prec ) = 0.15434E+02
  weight for this iteration     100.00

 eigenvalues of (default mixing * dielectric matrix)
  average eigenvalue GAMMA=   0.7926
  1.4328  0.1524

 Free energy of the ion-electron system (eV)
  ---------------------------------------------------
  alpha Z        PSCENC =      1522.38719128
  Ewald energy   TEWEN  =    243198.77074701
  -Hartree energ DENC   =   -292778.98371594
  -exchange      EXHF   =         0.00000000
  -V(xc)+E(xc)   XCENC  =       248.93976516
  PAW double counting   =     51837.46765926   -50146.70598836
  entropy T*S    EENTRO =        -0.33864904
  eigenvalues    EBANDS =     -2080.06378860
  atomic energy  EATOM  =     47527.87699037
  Solvation  Ediel_sol  =         0.00000000
  ---------------------------------------------------
  free energy    TOTEN  =      -670.64978887 eV

  energy without entropy =     -670.31113983  energy(sigma->0) =     -670.48046435


--------------------------------------------------------------------------------------------------------




--------------------------------------- Iteration      1(   8)  ---------------------------------------


    POTLOK:  cpu time    0.0285: real time    0.0287
    SETDIJ:  cpu time    0.0036: real time    0.0036
    EDDIAG:  cpu time    1.2926: real time    1.2952
  RMM-DIIS:  cpu time    3.6972: real time    3.7012
    ORTHCH:  cpu time    0.6151: real time    0.6154
       DOS:  cpu time    0.0009: real time    0.0008
    CHARGE:  cpu time    0.1564: real time    0.1567
    MIXING:  cpu time    0.0010: real time    0.0010
    --------------------------------------------
      LOOP:  cpu time    5.7953: real time    5.8025

 eigenvalue-minimisations  :  3920
 total energy-change (2. order) : 0.1689106E+03  (-0.1293616E+02)
 number of electron     651.9999915 magnetization 
 augmentation part      194.6979492 magnetization 

 DIPCOR: dipole corrections for dipol
 direction  3 min pos   183,
 dipolmoment           0.000000      0.000000     -0.446964 electrons x Angstroem
 Tr[quadrupol]    -12627.063995

 energy correction for charged system         0.000000 eV
 dipol+quadrupol energy correction           -0.006501 eV
 added-field ion interaction         -4.894579 eV  (added to PSCEN)


 Broyden mixing:
  rms(total) = 0.86792E+01    rms(broyden)= 0.86790E+01
  rms(prec ) = 0.10192E+02
  weight for this iteration     100.00

 eigenvalues of (default mixing * dielectric matrix)
  average eigenvalue GAMMA=   0.7881
  1.9768  0.1937  0.1937

 Free energy of the ion-electron system (eV)
  ---------------------------------------------------
  alpha Z        PSCENC =      1432.46260487
  Ewald energy   TEWEN  =    243198.77074701
  -Hartree energ DENC   =   -292907.05804766
  -exchange      EXHF   =         0.00000000
  -V(xc)+E(xc)   XCENC  =       244.60018466
  PAW double counting   =     53693.66763982   -52029.38522241
  entropy T*S    EENTRO =        -0.30257599
  eigenvalues    EBANDS =     -1662.37146451
  atomic energy  EATOM  =     47527.87699037
  Solvation  Ediel_sol  =         0.00000000
  ---------------------------------------------------
  free energy    TOTEN  =      -501.73914386 eV

  energy without entropy =     -501.43656787  energy(sigma->0) =     -501.58785586


--------------------------------------------------------------------------------------------------------




--------------------------------------- Iteration      1(   9)  ---------------------------------------


    POTLOK:  cpu time    0.0310: real time    0.0331
    SETDIJ:  cpu time    0.0036: real time    0.0036
    EDDIAG:  cpu time    1.2855: real time    1.2867
  RMM-DIIS:  cpu time    3.6882: real time    3.6925
    ORTHCH:  cpu time    0.6158: real time    0.6161
       DOS:  cpu time    0.0009: real time    0.0009
    CHARGE:  cpu time    0.1582: real time    0.1585
    MIXING:  cpu time    0.0011: real time    0.0011
    --------------------------------------------
      LOOP:  cpu time    5.7842: real time    5.7924

 eigenvalue-minimisations  :  3934
 total energy-change (2. order) : 0.7087190E+02  (-0.5672603E+01)
 number of electron     651.9999973 magnetization 
 augmentation part      199.6475255 magnetization 

 DIPCOR: dipole corrections for dipol
 direction  3 min pos   182,
 dipolmoment           0.000000      0.000000      1.440742 electrons x Angstroem
 Tr[quadrupol]    -12613.152398

 energy correction for charged system         0.000000 eV
 dipol+quadrupol energy correction           -0.067545 eV
 added-field ion interaction         10.318798 eV  (added to PSCEN)


 Broyden mixing:
  rms(total) = 0.50916E+01    rms(broyden)= 0.50916E+01
  rms(prec ) = 0.72764E+01
  weight for this iteration     100.00

 eigenvalues of (default mixing * dielectric matrix)
  average eigenvalue GAMMA=   0.7603
  1.9495  0.6043  0.3477  0.1398

 Free energy of the ion-electron system (eV)
  ---------------------------------------------------
  alpha Z        PSCENC =      1447.61493758
  Ewald energy   TEWEN  =    243198.77074701
  -Hartree energ DENC   =   -292381.23110659
  -exchange      EXHF   =         0.00000000
  -V(xc)+E(xc)   XCENC  =       241.85052259
  PAW double counting   =     56142.63946963   -54513.31051289
  entropy T*S    EENTRO =        -0.42111908
  eigenvalues    EBANDS =     -2094.65716896
  atomic energy  EATOM  =     47527.87699037
  Solvation  Ediel_sol  =         0.00000000
  ---------------------------------------------------
  free energy    TOTEN  =      -430.86724033 eV

  energy without entropy =     -430.44612125  energy(sigma->0) =     -430.65668079


--------------------------------------------------------------------------------------------------------




--------------------------------------- Iteration      1(  10)  ---------------------------------------


    POTLOK:  cpu time    0.0314: real time    0.0433
    SETDIJ:  cpu time    0.0036: real time    0.0036
    EDDIAG:  cpu time    1.2870: real time    1.2893
  RMM-DIIS:  cpu time    3.6915: real time    3.6961
    ORTHCH:  cpu time    0.6143: real time    0.6144
       DOS:  cpu time    0.0009: real time    0.0009
    CHARGE:  cpu time    0.1567: real time    0.1570
    MIXING:  cpu time    0.0011: real time    0.0011
    --------------------------------------------
      LOOP:  cpu time    5.7864: real time    5.8058

 eigenvalue-minimisations  :  3926
 total energy-change (2. order) : 0.1870022E+02  (-0.7105153E+01)
 number of electron     651.9999976 magnetization 
 augmentation part      201.2893097 magnetization 

 DIPCOR: dipole corrections for dipol
 direction  3 min pos   186,
 dipolmoment           0.000000      0.000000      0.260422 electrons x Angstroem
 Tr[quadrupol]    -12608.753358

 energy correction for charged system         0.000000 eV
 dipol+quadrupol energy correction           -0.002207 eV
 added-field ion interaction          5.811686 eV  (added to PSCEN)


 Broyden mixing:
  rms(total) = 0.52660E+01    rms(broyden)= 0.52659E+01
  rms(prec ) = 0.65331E+01
  weight for this iteration     100.00

 eigenvalues of (default mixing * dielectric matrix)
  average eigenvalue GAMMA=   0.6770
  2.0293  0.7143  0.3240  0.1482  0.1692

 Free energy of the ion-electron system (eV)
  ---------------------------------------------------
  alpha Z        PSCENC =      1443.17316378
  Ewald energy   TEWEN  =    243198.77074701
  -Hartree energ DENC   =   -292307.54891302
  -exchange      EXHF   =         0.00000000
  -V(xc)+E(xc)   XCENC  =       244.81448481
  PAW double counting   =     56425.18535206   -54791.95347603
  entropy T*S    EENTRO =        -0.39417276
  eigenvalues    EBANDS =     -2152.09119763
  atomic energy  EATOM  =     47527.87699037
  Solvation  Ediel_sol  =         0.00000000
  ---------------------------------------------------
  free energy    TOTEN  =      -412.16702141 eV

  energy without entropy =     -411.77284864  energy(sigma->0) =     -411.96993503


--------------------------------------------------------------------------------------------------------




--------------------------------------- Iteration      1(  11)  ---------------------------------------


    POTLOK:  cpu time    0.0300: real time    0.0312
    SETDIJ:  cpu time    0.0036: real time    0.0036
    EDDIAG:  cpu time    1.2947: real time    1.2970
  RMM-DIIS:  cpu time    3.7033: real time    3.7077
    ORTHCH:  cpu time    0.6169: real time    0.6171
       DOS:  cpu time    0.0009: real time    0.0009
    CHARGE:  cpu time    0.1571: real time    0.1574
    MIXING:  cpu time    0.0011: real time    0.0011
    --------------------------------------------
      LOOP:  cpu time    5.8075: real time    5.8159

 eigenvalue-minimisations  :  3934
 total energy-change (2. order) : 0.2171881E+02  (-0.1499215E+01)
 number of electron     651.9999982 magnetization 
 augmentation part      200.5343536 magnetization 

 DIPCOR: dipole corrections for dipol
 direction  3 min pos   188,
 dipolmoment           0.000000      0.000000     -0.441814 electrons x Angstroem
 Tr[quadrupol]    -12607.768937

 energy correction for charged system         0.000000 eV
 dipol+quadrupol energy correction           -0.006352 eV
 added-field ion interaction        -13.207416 eV  (added to PSCEN)


 Broyden mixing:
  rms(total) = 0.30118E+01    rms(broyden)= 0.30117E+01
  rms(prec ) = 0.38035E+01
  weight for this iteration     100.00

 eigenvalues of (default mixing * dielectric matrix)
  average eigenvalue GAMMA=   0.6573
  2.1540  0.7604  0.3312  0.3312  0.1491  0.2175

 Free energy of the ion-electron system (eV)
  ---------------------------------------------------
  alpha Z        PSCENC =      1424.14991671
  Ewald energy   TEWEN  =    243198.77074701
  -Hartree energ DENC   =   -292331.49286259
  -exchange      EXHF   =         0.00000000
  -V(xc)+E(xc)   XCENC  =       245.88555395
  PAW double counting   =     56719.45987760   -55086.09449962
  entropy T*S    EENTRO =        -0.52869181
  eigenvalues    EBANDS =     -2088.47523953
  atomic energy  EATOM  =     47527.87699037
  Solvation  Ediel_sol  =         0.00000000
  ---------------------------------------------------
  free energy    TOTEN  =      -390.44820792 eV

  energy without entropy =     -389.91951611  energy(sigma->0) =     -390.18386201


--------------------------------------------------------------------------------------------------------




--------------------------------------- Iteration      1(  12)  ---------------------------------------


    POTLOK:  cpu time    0.0316: real time    0.0329
    SETDIJ:  cpu time    0.0036: real time    0.0036
    EDDIAG:  cpu time    1.2850: real time    1.2864
  RMM-DIIS:  cpu time    3.7072: real time    3.7135
    ORTHCH:  cpu time    0.6149: real time    0.6152
       DOS:  cpu time    0.0009: real time    0.0009
    CHARGE:  cpu time    0.1562: real time    0.1565
    MIXING:  cpu time    0.0012: real time    0.0012
    --------------------------------------------
      LOOP:  cpu time    5.8006: real time    5.8101

 eigenvalue-minimisations  :  3935
 total energy-change (2. order) : 0.5558272E+01  (-0.6551368E+00)
 number of electron     651.9999982 magnetization 
 augmentation part      200.7155988 magnetization 

 DIPCOR: dipole corrections for dipol
 direction  3 min pos   191,
 dipolmoment           0.000000      0.000000     -0.158875 electrons x Angstroem
 Tr[quadrupol]    -12608.898980

 energy correction for charged system         0.000000 eV
 dipol+quadrupol energy correction           -0.000821 eV
 added-field ion interaction         -6.555086 eV  (added to PSCEN)


 Broyden mixing:
  rms(total) = 0.18319E+01    rms(broyden)= 0.18318E+01
  rms(prec ) = 0.21241E+01
  weight for this iteration     100.00

 eigenvalues of (default mixing * dielectric matrix)
  average eigenvalue GAMMA=   0.6379
  2.1260  0.8552  0.4408  0.4408  0.2853  0.1586  0.1586

 Free energy of the ion-electron system (eV)
  ---------------------------------------------------
  alpha Z        PSCENC =      1430.80777715
  Ewald energy   TEWEN  =    243198.77074701
  -Hartree energ DENC   =   -292349.60029560
  -exchange      EXHF   =         0.00000000
  -V(xc)+E(xc)   XCENC  =       245.50876086
  PAW double counting   =     56974.49386469   -55344.98380116
  entropy T*S    EENTRO =        -0.59539304
  eigenvalues    EBANDS =     -2067.16858629
  atomic energy  EATOM  =     47527.87699037
  Solvation  Ediel_sol  =         0.00000000
  ---------------------------------------------------
  free energy    TOTEN  =      -384.88993600 eV

  energy without entropy =     -384.29454297  energy(sigma->0) =     -384.59223948


--------------------------------------------------------------------------------------------------------




--------------------------------------- Iteration      1(  13)  ---------------------------------------


    POTLOK:  cpu time    0.0322: real time    0.0325
    SETDIJ:  cpu time    0.0035: real time    0.0035
    EDDIAG:  cpu time    1.2862: real time    1.2878
  RMM-DIIS:  cpu time    3.7568: real time    3.7607
    ORTHCH:  cpu time    0.6158: real time    0.6161
       DOS:  cpu time    0.0009: real time    0.0009
    CHARGE:  cpu time    0.1564: real time    0.1566
    MIXING:  cpu time    0.0012: real time    0.0012
    --------------------------------------------
      LOOP:  cpu time    5.8530: real time    5.8592

 eigenvalue-minimisations  :  3939
 total energy-change (2. order) : 0.1439381E+01  (-0.2542806E+00)
 number of electron     651.9999984 magnetization 
 augmentation part      200.6826014 magnetization 

 DIPCOR: dipole corrections for dipol
 direction  3 min pos   193,
 dipolmoment           0.000000      0.000000      0.011191 electrons x Angstroem
 Tr[quadrupol]    -12609.205002

 energy correction for charged system         0.000000 eV
 dipol+quadrupol energy correction           -0.000004 eV
 added-field ion interaction          0.546517 eV  (added to PSCEN)


 Broyden mixing:
  rms(total) = 0.13940E+01    rms(broyden)= 0.13940E+01
  rms(prec ) = 0.16723E+01
  weight for this iteration     100.00

 eigenvalues of (default mixing * dielectric matrix)
  average eigenvalue GAMMA=   0.5800
  2.1034  0.8345  0.4606  0.4606  0.2643  0.1509  0.1828  0.1828

 Free energy of the ion-electron system (eV)
  ---------------------------------------------------
  alpha Z        PSCENC =      1437.91019765
  Ewald energy   TEWEN  =    243198.77074701
  -Hartree energ DENC   =   -292350.24719363
  -exchange      EXHF   =         0.00000000
  -V(xc)+E(xc)   XCENC  =       245.40517432
  PAW double counting   =     56964.11215825   -55334.41737321
  entropy T*S    EENTRO =        -0.60022992
  eigenvalues    EBANDS =     -2072.26102554
  atomic energy  EATOM  =     47527.87699037
  Solvation  Ediel_sol  =         0.00000000
  ---------------------------------------------------
  free energy    TOTEN  =      -383.45055470 eV

  energy without entropy =     -382.85032479  energy(sigma->0) =     -383.15043974


--------------------------------------------------------------------------------------------------------




--------------------------------------- Iteration      1(  14)  ---------------------------------------


    POTLOK:  cpu time    0.0300: real time    0.0301
    SETDIJ:  cpu time    0.0036: real time    0.0036
    EDDIAG:  cpu time    1.2865: real time    1.2879
  RMM-DIIS:  cpu time    3.7485: real time    3.7527
    ORTHCH:  cpu time    0.6153: real time    0.6157
       DOS:  cpu time    0.0009: real time    0.0009
    CHARGE:  cpu time    0.1555: real time    0.1559
    MIXING:  cpu time    0.0013: real time    0.0013
    --------------------------------------------
      LOOP:  cpu time    5.8415: real time    5.8479

 eigenvalue-minimisations  :  3939
 total energy-change (2. order) : 0.1404857E+01  (-0.7582384E-01)
 number of electron     651.9999983 magnetization 
 augmentation part      200.6605864 magnetization 

 DIPCOR: dipole corrections for dipol
 direction  3 min pos   195,
 dipolmoment           0.000000      0.000000     -0.016864 electrons x Angstroem
 Tr[quadrupol]    -12609.007829

 energy correction for charged system         0.000000 eV
 dipol+quadrupol energy correction           -0.000009 eV
 added-field ion interaction         -0.951379 eV  (added to PSCEN)


 Broyden mixing:
  rms(total) = 0.78033E+00    rms(broyden)= 0.78032E+00
  rms(prec ) = 0.92184E+00
  weight for this iteration     100.00

 eigenvalues of (default mixing * dielectric matrix)
  average eigenvalue GAMMA=   0.5737
  2.0902  0.6814  0.6814  0.5367  0.3358  0.3358  0.1947  0.1536  0.1536

 Free energy of the ion-electron system (eV)
  ---------------------------------------------------
  alpha Z        PSCENC =      1436.41229592
  Ewald energy   TEWEN  =    243198.77074701
  -Hartree energ DENC   =   -292350.05228110
  -exchange      EXHF   =         0.00000000
  -V(xc)+E(xc)   XCENC  =       245.52378646
  PAW double counting   =     56938.85148396   -55308.37437980
  entropy T*S    EENTRO =        -0.64834505
  eigenvalues    EBANDS =     -2070.40599532
  atomic energy  EATOM  =     47527.87699037
  Solvation  Ediel_sol  =         0.00000000
  ---------------------------------------------------
  free energy    TOTEN  =      -382.04569755 eV

  energy without entropy =     -381.39735250  energy(sigma->0) =     -381.72152503


--------------------------------------------------------------------------------------------------------




--------------------------------------- Iteration      1(  15)  ---------------------------------------


    POTLOK:  cpu time    0.0299: real time    0.0300
    SETDIJ:  cpu time    0.0037: real time    0.0037
    EDDIAG:  cpu time    1.2853: real time    1.2864
  RMM-DIIS:  cpu time    3.7354: real time    3.7396
    ORTHCH:  cpu time    0.6159: real time    0.6163
       DOS:  cpu time    0.0009: real time    0.0009
    CHARGE:  cpu time    0.1561: real time    0.1563
    MIXING:  cpu time    0.0014: real time    0.0014
    --------------------------------------------
      LOOP:  cpu time    5.8285: real time    5.8346

 eigenvalue-minimisations  :  3947
 total energy-change (2. order) : 0.1918655E+00  (-0.4118916E-01)
 number of electron     651.9999983 magnetization 
 augmentation part      200.5975888 magnetization 

 DIPCOR: dipole corrections for dipol
 direction  3 min pos   196,
 dipolmoment           0.000000      0.000000     -0.045027 electrons x Angstroem
 Tr[quadrupol]    -12608.997295

 energy correction for charged system         0.000000 eV
 dipol+quadrupol energy correction           -0.000066 eV
 added-field ion interaction         -2.710729 eV  (added to PSCEN)


 Broyden mixing:
  rms(total) = 0.70909E+00    rms(broyden)= 0.70909E+00
  rms(prec ) = 0.77778E+00
  weight for this iteration     100.00

 eigenvalues of (default mixing * dielectric matrix)
  average eigenvalue GAMMA=   0.5859
  2.1159  0.8692  0.8692  0.5092  0.3879  0.3879  0.2221  0.1932  0.1523  0.1523

 Free energy of the ion-electron system (eV)
  ---------------------------------------------------
  alpha Z        PSCENC =      1434.65288936
  Ewald energy   TEWEN  =    243198.77074701
  -Hartree energ DENC   =   -292357.26464456
  -exchange      EXHF   =         0.00000000
  -V(xc)+E(xc)   XCENC  =       245.70371807
  PAW double counting   =     56921.04302564   -55289.59466389
  entropy T*S    EENTRO =        -0.64534653
  eigenvalues    EBANDS =     -2062.39654750
  atomic energy  EATOM  =     47527.87699037
  Solvation  Ediel_sol  =         0.00000000
  ---------------------------------------------------
  free energy    TOTEN  =      -381.85383203 eV

  energy without entropy =     -381.20848551  energy(sigma->0) =     -381.53115877


--------------------------------------------------------------------------------------------------------




--------------------------------------- Iteration      1(  16)  ---------------------------------------


    POTLOK:  cpu time    0.0312: real time    0.0447
    SETDIJ:  cpu time    0.0036: real time    0.0036
    EDDIAG:  cpu time    1.2851: real time    1.2863
  RMM-DIIS:  cpu time    3.7216: real time    3.7264
    ORTHCH:  cpu time    0.6160: real time    0.6162
       DOS:  cpu time    0.0009: real time    0.0009
    CHARGE:  cpu time    0.1584: real time    0.1587
    MIXING:  cpu time    0.0016: real time    0.0016
    --------------------------------------------
      LOOP:  cpu time    5.8182: real time    5.8384

 eigenvalue-minimisations  :  3945
 total energy-change (2. order) : 0.1385929E+00  (-0.2178837E-01)
 number of electron     651.9999982 magnetization 
 augmentation part      200.5160073 magnetization 

 DIPCOR: dipole corrections for dipol
 direction  3 min pos   196,
 dipolmoment           0.000000      0.000000     -0.069663 electrons x Angstroem
 Tr[quadrupol]    -12609.186458

 energy correction for charged system         0.000000 eV
 dipol+quadrupol energy correction           -0.000158 eV
 added-field ion interaction         -4.193861 eV  (added to PSCEN)


 Broyden mixing:
  rms(total) = 0.55612E+00    rms(broyden)= 0.55611E+00
  rms(prec ) = 0.58512E+00
  weight for this iteration     100.00

 eigenvalues of (default mixing * dielectric matrix)
  average eigenvalue GAMMA=   0.6090
  2.1721  1.0213  1.0213  0.5795  0.4380  0.4380  0.2778  0.2675  0.1785  0.1522
  0.1522

 Free energy of the ion-electron system (eV)
  ---------------------------------------------------
  alpha Z        PSCENC =      1433.16966572
  Ewald energy   TEWEN  =    243198.77074701
  -Hartree energ DENC   =   -292368.77817648
  -exchange      EXHF   =         0.00000000
  -V(xc)+E(xc)   XCENC  =       245.87595159
  PAW double counting   =     56941.86149620   -55309.83245354
  entropy T*S    EENTRO =        -0.66095790
  eigenvalues    EBANDS =     -2049.99850210
  atomic energy  EATOM  =     47527.87699037
  Solvation  Ediel_sol  =         0.00000000
  ---------------------------------------------------
  free energy    TOTEN  =      -381.71523912 eV

  energy without entropy =     -381.05428122  energy(sigma->0) =     -381.38476017


--------------------------------------------------------------------------------------------------------




--------------------------------------- Iteration      1(  17)  ---------------------------------------


    POTLOK:  cpu time    0.0317: real time    0.0318
    SETDIJ:  cpu time    0.0036: real time    0.0036
    EDDIAG:  cpu time    1.2851: real time    1.2875
  RMM-DIIS:  cpu time    3.6826: real time    3.6867
    ORTHCH:  cpu time    0.6170: real time    0.6173
       DOS:  cpu time    0.0009: real time    0.0009
    CHARGE:  cpu time    0.1568: real time    0.1571
    MIXING:  cpu time    0.0016: real time    0.0016
    --------------------------------------------
      LOOP:  cpu time    5.7794: real time    5.7865

 eigenvalue-minimisations  :  3941
 total energy-change (2. order) :-0.2850170E-01  (-0.1770996E-01)
 number of electron     651.9999982 magnetization 
 augmentation part      200.4412922 magnetization 

 DIPCOR: dipole corrections for dipol
 direction  3 min pos   195,
 dipolmoment           0.000000      0.000000     -0.082564 electrons x Angstroem
 Tr[quadrupol]    -12609.531699

 energy correction for charged system         0.000000 eV
 dipol+quadrupol energy correction           -0.000222 eV
 added-field ion interaction         -4.657731 eV  (added to PSCEN)


 Broyden mixing:
  rms(total) = 0.52257E+00    rms(broyden)= 0.52256E+00
  rms(prec ) = 0.58208E+00
  weight for this iteration     100.00

 eigenvalues of (default mixing * dielectric matrix)
  average eigenvalue GAMMA=   0.6453
  2.1907  1.2831  1.2831  0.8078  0.4465  0.3797  0.3797  0.2964  0.1912  0.1826
  0.1516  0.1516

 Free energy of the ion-electron system (eV)
  ---------------------------------------------------
  alpha Z        PSCENC =      1432.70573141
  Ewald energy   TEWEN  =    243198.77074701
  -Hartree energ DENC   =   -292382.13108188
  -exchange      EXHF   =         0.00000000
  -V(xc)+E(xc)   XCENC  =       246.00600575
  PAW double counting   =     56985.22014986   -55352.93869200
  entropy T*S    EENTRO =        -0.65043805
  eigenvalues    EBANDS =     -2036.60315328
  atomic energy  EATOM  =     47527.87699037
  Solvation  Ediel_sol  =         0.00000000
  ---------------------------------------------------
  free energy    TOTEN  =      -381.74374082 eV

  energy without entropy =     -381.09330276  energy(sigma->0) =     -381.41852179


--------------------------------------------------------------------------------------------------------




--------------------------------------- Iteration      1(  18)  ---------------------------------------


    POTLOK:  cpu time    0.0334: real time    0.0435
    SETDIJ:  cpu time    0.0036: real time    0.0036
    EDDIAG:  cpu time    1.2845: real time    1.2880
  RMM-DIIS:  cpu time    3.7331: real time    3.7374
    ORTHCH:  cpu time    0.6175: real time    0.6178
       DOS:  cpu time    0.0009: real time    0.0009
    CHARGE:  cpu time    0.1585: real time    0.1588
    MIXING:  cpu time    0.0017: real time    0.0017
    --------------------------------------------
      LOOP:  cpu time    5.8331: real time    5.8515

 eigenvalue-minimisations  :  3937
 total energy-change (2. order) : 0.3393280E-01  (-0.1662776E-01)
 number of electron     651.9999981 magnetization 
 augmentation part      200.3153598 magnetization 

 DIPCOR: dipole corrections for dipol
 direction  3 min pos   184,
 dipolmoment           0.000000      0.000000     -0.106638 electrons x Angstroem
 Tr[quadrupol]    -12610.070347

 energy correction for charged system         0.000000 eV
 dipol+quadrupol energy correction           -0.000370 eV
 added-field ion interaction         -1.571772 eV  (added to PSCEN)


 Broyden mixing:
  rms(total) = 0.43014E+00    rms(broyden)= 0.43013E+00
  rms(prec ) = 0.50803E+00
  weight for this iteration     100.00

 eigenvalues of (default mixing * dielectric matrix)
  average eigenvalue GAMMA=   0.6563
  2.0312  1.5111  1.5111  0.8981  0.5426  0.3868  0.3868  0.3585  0.2429  0.1915
  0.1520  0.1520  0.1675

 Free energy of the ion-electron system (eV)
  ---------------------------------------------------
  alpha Z        PSCENC =      1435.79154295
  Ewald energy   TEWEN  =    243198.77074701
  -Hartree energ DENC   =   -292397.98790762
  -exchange      EXHF   =         0.00000000
  -V(xc)+E(xc)   XCENC  =       246.20281262
  PAW double counting   =     57002.67961084   -55369.55409830
  entropy T*S    EENTRO =        -0.66104104
  eigenvalues    EBANDS =     -2024.82846484
  atomic energy  EATOM  =     47527.87699037
  Solvation  Ediel_sol  =         0.00000000
  ---------------------------------------------------
  free energy    TOTEN  =      -381.70980801 eV

  energy without entropy =     -381.04876697  energy(sigma->0) =     -381.37928749


--------------------------------------------------------------------------------------------------------




--------------------------------------- Iteration      1(  19)  ---------------------------------------


    POTLOK:  cpu time    0.0317: real time    0.0338
    SETDIJ:  cpu time    0.0036: real time    0.0036
    EDDIAG:  cpu time    1.2869: real time    1.2903
  RMM-DIIS:  cpu time    3.6924: real time    3.6966
    ORTHCH:  cpu time    0.6180: real time    0.6183
       DOS:  cpu time    0.0009: real time    0.0009
    CHARGE:  cpu time    0.1577: real time    0.1579
    MIXING:  cpu time    0.0018: real time    0.0018
    --------------------------------------------
      LOOP:  cpu time    5.7930: real time    5.8032

 eigenvalue-minimisations  :  3939
 total energy-change (2. order) : 0.9073373E-01  (-0.1292189E-01)
 number of electron     651.9999982 magnetization 
 augmentation part      200.2192318 magnetization 

 DIPCOR: dipole corrections for dipol
 direction  3 min pos   184,
 dipolmoment           0.000000      0.000000     -0.078693 electrons x Angstroem
 Tr[quadrupol]    -12610.218880

 energy correction for charged system         0.000000 eV
 dipol+quadrupol energy correction           -0.000202 eV
 added-field ion interaction         -1.159885 eV  (added to PSCEN)


 Broyden mixing:
  rms(total) = 0.27071E+00    rms(broyden)= 0.27070E+00
[...]
    FORHAR:  cpu time    0.0147: real time    0.0147
    MIXING:  cpu time    0.0011: real time    0.0012
    OFIELD:  cpu time    0.0000: real time    0.0000

 ---------------------------------------------------------------------------------------------

         DFTD3 V3.0 Rev 1        
 Edisp (eV)  -34.52768

 E6    (eV) :   -12.9880
 E8    (eV) :   -21.5397
 % E8        : 62.38
    FORVDW:  cpu time    0.1687: real time    0.1721

  FORCE on cell =-STRESS in cart. coord.  units (eV):
  Direction    XX          YY          ZZ          XY          YZ          ZX
  --------------------------------------------------------------------------------------
  Alpha Z  1437.36368  1437.36368  1437.36368
  Ewald  283191.19163283501.00097************    -0.02122    -0.01532    95.55035
  Hartree293853.99277293984.45656************    -0.00609     0.01452    36.62289
  E(xc)   -2890.84997 -2889.99198 -2907.42348    -0.00008    -0.00003     0.40636
  Local  ************************597677.99104     0.02411    -0.00206  -119.99888
  n-local   219.00823   242.40867   238.37731    -0.00123    -0.00182     2.11490
  augment  3372.75239  3353.05549  3424.44499     0.00133     0.00133    -4.29593
  Kinetic  9513.34217  9480.64915  9696.21076     0.00274     0.00223    -9.00398
  Fock        0.00000     0.00000     0.00000     0.00000     0.00000     0.00000
  vdW       -42.68469   -43.58212   -30.00193     0.00010    -0.00004    -0.49837
  -------------------------------------------------------------------------------------
  Total    -107.88875   -96.85763   -12.74827    -0.00034    -0.00120     0.89734
  in kB     -62.16444   -55.80841    -7.34543    -0.00020    -0.00069     0.51704
  external pressure =      -41.77 kB  Pullay stress =        0.00 kB


 VOLUME and BASIS-vectors are now :
 -----------------------------------------------------------------------------
  energy-cutoff  :      450.00
  volume of cell :     2780.64
      direct lattice vectors                 reciprocal lattice vectors
     9.912147860  0.000000000  0.000000000     0.100886308  0.000000000  0.000000000
     0.000000000 11.221139680  0.000000000     0.000000000  0.089117508  0.000000000
     0.000000000  0.000000000 25.000000000     0.000000000  0.000000000  0.040000000

  length of vectors
     9.912147860 11.221139680 25.000000000     0.100886308  0.089117508  0.040000000


 FORCES acting on ions
    electron-ion (+dipol)            ewald-force                    non-local-force                 convergence-correction
 -----------------------------------------------------------------------------------------------
   -.122E+00 -.369E-02 0.253E+04   0.131E-02 0.106E-01 -.253E+04   0.459E-01 -.150E-01 -.125E+01   0.109E-01 0.138E-01 -.443E-01
   -.151E+01 -.204E+01 0.901E+03   0.142E+01 0.195E+01 -.900E+03   0.538E-01 0.151E+00 -.932E+00   0.429E-01 0.497E-02 0.138E-01
   0.434E+01 0.122E+02 -.764E+03   -.404E+01 -.116E+02 0.765E+03   -.330E+00 -.540E+00 -.246E-01   0.263E-01 0.112E-01 0.771E-01
   -.153E+00 -.376E+00 0.253E+04   0.995E-01 0.285E+00 -.253E+04   -.129E-01 0.323E-01 -.135E+01   0.226E-01 0.257E-01 -.220E-01
   -.484E+01 -.154E+01 0.904E+03   0.486E+01 0.144E+01 -.903E+03   0.755E-01 0.918E-01 -.981E+00   0.971E-02 0.582E-01 0.150E-01
   -.486E+01 0.108E+02 -.777E+03   0.475E+01 -.106E+02 0.777E+03   0.771E-01 -.281E+00 0.740E+00   0.516E-01 0.384E-01 0.713E-01
   0.168E+02 0.183E+02 -.247E+04   -.172E+02 -.182E+02 0.247E+04   0.441E+00 -.667E-01 0.131E+01   -.341E-01 0.148E-01 0.770E-01
   0.514E+02 0.100E+03 -.239E+04   -.524E+02 -.102E+03 0.239E+04   0.101E+01 0.234E+01 0.928E+00   0.246E-01 0.287E-01 0.573E-01
   0.349E-01 -.875E-01 0.253E+04   0.870E-01 0.230E-01 -.253E+04   -.109E+00 0.956E-03 -.131E+01   0.471E-02 0.408E-01 -.111E-01
   -.286E+01 -.295E+01 0.900E+03   0.279E+01 0.286E+01 -.900E+03   0.459E-01 0.148E+00 -.757E+00   0.319E-01 0.468E-01 0.235E-01
   0.426E+01 0.969E+01 -.771E+03   -.390E+01 -.926E+01 0.771E+03   -.376E+00 -.483E+00 0.265E+00   0.849E-04 0.505E-01 0.617E-01
   -.379E+00 -.206E-01 0.253E+04   0.371E+00 0.231E-03 -.253E+04   -.231E-01 -.525E-04 -.136E+01   0.123E-01 0.206E-01 0.416E-02
   -.574E+01 -.308E-01 0.905E+03   0.564E+01 -.698E-03 -.904E+03   0.167E+00 -.635E-04 -.889E+00   -.747E-02 0.316E-01 0.311E-01
   -.313E+01 -.280E-01 -.797E+03   0.297E+01 -.356E-02 0.797E+03   0.125E+00 -.256E-03 0.783E+00   0.604E-01 0.319E-01 0.576E-01
   0.356E+02 0.178E+02 -.244E+04   -.361E+02 -.178E+02 0.244E+04   0.535E+00 -.856E-01 0.158E+01   -.458E-01 0.415E-01 0.439E-01
   0.108E+03 -.201E-01 -.236E+04   -.111E+03 0.153E-02 0.236E+04   0.283E+01 0.573E-04 0.109E+01   0.120E-01 0.186E-01 0.208E-01
   0.343E-01 0.597E-01 0.253E+04   0.874E-01 -.229E-01 -.253E+04   -.109E+00 -.106E-02 -.131E+01   0.487E-02 -.128E-01 0.395E-02
   -.286E+01 0.290E+01 0.900E+03   0.279E+01 -.285E+01 -.900E+03   0.458E-01 -.148E+00 -.757E+00   0.331E-01 0.569E-03 0.315E-01
   0.425E+01 -.974E+01 -.771E+03   -.389E+01 0.928E+01 0.771E+03   -.376E+00 0.483E+00 0.264E+00   0.114E-02 -.564E-02 0.524E-01
   -.154E+00 0.376E+00 0.253E+04   0.993E-01 -.285E+00 -.253E+04   -.129E-01 -.323E-01 -.135E+01   0.239E-01 -.254E-01 0.894E-03
   -.484E+01 0.154E+01 0.903E+03   0.486E+01 -.144E+01 -.903E+03   0.755E-01 -.918E-01 -.981E+00   0.116E-01 -.579E-01 0.260E-01
   -.486E+01 -.108E+02 -.777E+03   0.474E+01 0.106E+02 0.777E+03   0.773E-01 0.281E+00 0.740E+00   0.521E-01 -.369E-01 0.563E-01
   0.356E+02 -.179E+02 -.244E+04   -.361E+02 0.178E+02 0.244E+04   0.535E+00 0.859E-01 0.158E+01   -.462E-01 -.137E-01 0.285E-01
   0.514E+02 -.100E+03 -.239E+04   -.524E+02 0.102E+03 0.239E+04   0.101E+01 -.234E+01 0.928E+00   0.246E-01 -.314E-01 0.349E-01
   -.123E+00 0.315E-01 0.253E+04   0.164E-02 -.106E-01 -.253E+04   0.460E-01 0.151E-01 -.125E+01   0.110E-01 -.418E-01 -.291E-01
   -.150E+01 0.208E+01 0.901E+03   0.142E+01 -.195E+01 -.900E+03   0.537E-01 -.151E+00 -.932E+00   0.441E-01 -.524E-01 0.217E-01
   0.434E+01 -.121E+02 -.764E+03   -.404E+01 0.116E+02 0.765E+03   -.330E+00 0.540E+00 -.246E-01   0.276E-01 -.553E-01 0.677E-01
   0.964E-02 0.207E-01 0.253E+04   -.148E+00 -.114E-03 -.253E+04   0.105E-01 0.839E-04 -.132E+01   0.330E-01 -.208E-01 -.258E-01
   -.509E+01 0.315E-01 0.902E+03   0.516E+01 0.334E-03 -.901E+03   0.310E-02 0.761E-04 -.111E+01   0.293E-01 -.319E-01 0.860E-02
   -.232E+01 0.275E-01 -.766E+03   0.223E+01 0.512E-02 0.765E+03   0.376E-01 0.199E-03 0.663E+00   0.467E-01 -.328E-01 0.689E-01
   0.168E+02 -.182E+02 -.247E+04   -.172E+02 0.182E+02 0.247E+04   0.440E+00 0.668E-01 0.131E+01   -.343E-01 -.432E-01 0.618E-01
   -.772E+01 0.116E-01 -.246E+04   0.744E+01 0.785E-02 0.246E+04   0.249E+00 0.275E-03 0.138E+01   0.328E-01 -.197E-01 0.600E-01
   0.130E+01 -.337E+00 0.253E+04   -.123E+01 0.325E+00 -.253E+04   -.396E-01 0.993E-02 -.132E+01   -.115E-01 0.213E-02 -.117E-01
   0.175E+01 0.709E+00 0.906E+03   -.167E+01 -.703E+00 -.905E+03   -.685E-02 -.120E-01 -.118E+01   -.429E-01 0.278E-01 0.321E-01
   -.117E+01 0.528E+01 -.768E+03   0.106E+01 -.525E+01 0.768E+03   0.134E+00 -.546E-01 0.700E+00   -.264E-01 0.228E-01 0.978E-01
   0.159E+01 -.240E+00 0.253E+04   -.149E+01 0.223E+00 -.253E+04   -.471E-01 -.636E-02 -.138E+01   -.215E-01 0.340E-01 -.129E-01
   0.428E+01 -.147E+01 0.902E+03   -.425E+01 0.147E+01 -.901E+03   -.124E+00 0.228E-01 -.922E+00   -.101E-01 0.460E-01 0.467E-01
   0.288E+01 0.697E+01 -.758E+03   -.278E+01 -.697E+01 0.757E+03   -.429E-01 -.719E-01 0.805E+00   -.482E-01 0.705E-01 0.966E-01
   -.166E+02 0.318E+02 -.244E+04   0.171E+02 -.323E+02 0.244E+04   -.521E+00 0.520E+00 0.196E+01   0.344E-01 0.102E-01 0.481E-01
   -.898E+01 0.219E+02 -.247E+04   0.931E+01 -.221E+02 0.247E+04   -.304E+00 0.204E+00 0.136E+01   -.206E-01 0.437E-01 0.453E-01
   0.134E+01 -.419E+00 0.253E+04   -.128E+01 0.385E+00 -.252E+04   -.454E-01 0.584E-03 -.133E+01   -.589E-02 0.278E-01 0.692E-02
   0.454E+01 0.367E+00 0.907E+03   -.460E+01 -.402E+00 -.906E+03   0.237E-01 -.206E-01 -.114E+01   -.314E-01 0.680E-01 0.585E-01
   -.759E+01 0.490E+01 -.766E+03   0.694E+01 -.494E+01 0.766E+03   0.653E+00 -.260E-01 0.503E-01   0.975E-02 0.637E-01 0.861E-01
   0.187E+01 -.194E-01 0.253E+04   -.176E+01 -.450E-03 -.253E+04   -.626E-01 -.495E-04 -.134E+01   -.112E-01 0.200E-01 0.185E-01
   0.636E+01 -.283E-01 0.899E+03   -.630E+01 -.455E-02 -.899E+03   -.200E+00 -.233E-04 -.703E+00   0.648E-02 0.330E-01 0.649E-01
   0.304E+01 -.228E-01 -.748E+03   -.297E+01 -.789E-02 0.748E+03   0.703E-02 -.259E-03 0.790E+00   -.496E-01 0.308E-01 0.816E-01
   -.107E+03 0.283E+02 -.239E+04   0.109E+03 -.285E+02 0.239E+04   -.212E+01 0.129E+00 0.109E+01   0.570E-01 0.371E-01 0.192E-01
   -.277E+02 -.156E-01 -.246E+04   0.277E+02 -.348E-02 0.246E+04   -.256E-01 -.215E-03 0.135E+01   -.447E-02 0.195E-01 0.113E-01
   0.134E+01 0.390E+00 0.253E+04   -.128E+01 -.385E+00 -.252E+04   -.454E-01 -.669E-03 -.133E+01   -.641E-02 0.211E-02 0.235E-01
   0.454E+01 -.411E+00 0.907E+03   -.460E+01 0.402E+00 -.906E+03   0.236E-01 0.208E-01 -.114E+01   -.325E-01 -.232E-01 0.661E-01
   -.759E+01 -.494E+01 -.766E+03   0.695E+01 0.494E+01 0.766E+03   0.655E+00 0.263E-01 0.495E-01   0.870E-02 -.187E-01 0.767E-01
   0.159E+01 0.240E+00 0.253E+04   -.149E+01 -.223E+00 -.253E+04   -.470E-01 0.636E-02 -.138E+01   -.234E-01 -.336E-01 0.916E-02
   0.429E+01 0.146E+01 0.902E+03   -.425E+01 -.146E+01 -.901E+03   -.124E+00 -.225E-01 -.922E+00   -.125E-01 -.452E-01 0.576E-01
   0.287E+01 -.698E+01 -.758E+03   -.277E+01 0.698E+01 0.757E+03   -.426E-01 0.721E-01 0.805E+00   -.480E-01 -.698E-01 0.855E-01
   -.107E+03 -.283E+02 -.239E+04   0.109E+03 0.285E+02 0.239E+04   -.211E+01 -.130E+00 0.109E+01   0.574E-01 -.102E-01 0.319E-02
   -.899E+01 -.219E+02 -.247E+04   0.932E+01 0.221E+02 0.247E+04   -.304E+00 -.205E+00 0.136E+01   -.199E-01 -.438E-01 0.235E-01
   0.130E+01 0.367E+00 0.253E+04   -.123E+01 -.325E+00 -.253E+04   -.395E-01 -.977E-02 -.132E+01   -.120E-01 -.320E-01 0.498E-02
   0.174E+01 -.665E+00 0.906E+03   -.167E+01 0.704E+00 -.905E+03   -.682E-02 0.120E-01 -.118E+01   -.444E-01 -.725E-01 0.401E-01
   -.117E+01 -.524E+01 -.768E+03   0.106E+01 0.525E+01 0.768E+03   0.134E+00 0.545E-01 0.700E+00   -.274E-01 -.680E-01 0.886E-01
   0.132E+01 0.199E-01 0.253E+04   -.125E+01 0.309E-03 -.253E+04   -.531E-01 0.578E-04 -.139E+01   -.313E-01 -.204E-01 -.254E-01
   0.260E+01 0.311E-01 0.903E+03   -.259E+01 0.243E-02 -.903E+03   -.594E-01 0.965E-04 -.112E+01   -.275E-01 -.337E-01 0.376E-01
   0.377E+01 0.308E-01 -.767E+03   -.356E+01 0.433E-03 0.766E+03   -.175E+00 0.397E-04 0.850E+00   -.465E-01 -.314E-01 0.103E+00
   -.166E+02 -.318E+02 -.244E+04   0.171E+02 0.323E+02 0.244E+04   -.521E+00 -.520E+00 0.196E+01   0.351E-01 -.386E-01 0.319E-01
   0.432E+01 0.150E-01 -.247E+04   -.391E+01 0.511E-02 0.247E+04   -.379E+00 0.564E-04 0.136E+01   -.329E-01 -.202E-01 0.608E-01
   -.132E+02 0.407E+02 -.180E+04   0.147E+02 -.401E+02 0.183E+04   -.152E+01 -.639E+00 -.275E+02   0.169E-01 0.995E-02 0.169E-01
   -.132E+02 -.407E+02 -.180E+04   0.147E+02 0.401E+02 0.183E+04   -.152E+01 0.639E+00 -.275E+02   0.171E-01 0.116E-02 0.769E-02
 -----------------------------------------------------------------------------------------------
   0.241E+01 -.607E-02 0.596E+02   -.143E-11 0.448E-12 -.591E-11   -.254E+01 0.201E-02 -.622E+02   0.112E+00 0.563E-02 0.235E+01
 
 
 POSITION                                       TOTAL-FORCE (eV/Angst)
 -----------------------------------------------------------------------------------
      0.00000      0.00000      0.00000        -0.060741      0.005359      0.228700
      3.30405      0.00000      2.29051         0.008565      0.067409     -0.325253
      1.66477      0.02057      4.47802        -0.003083     -0.002904      0.000645
      2.47804      1.40264      0.00000        -0.039953     -0.033186      0.339213
      0.82601      1.40264      2.29051         0.103598      0.049643     -0.319242
      4.12791      1.42910      4.49694         0.002477     -0.000732      0.004181
      9.88489     11.20579      6.70275         0.000458      0.000011      0.009068
      2.41082      1.26019      6.75200         0.002984      0.001053      0.003804
      0.00000      2.80528      0.00000         0.020893     -0.023092      0.278824
      3.30405      2.80528      2.29051         0.010819      0.097132     -0.140374
      1.67319      2.82242      4.50476        -0.001120     -0.002242     -0.000741
      2.47804      4.20793      0.00000        -0.015527      0.000066      0.336254
      0.82601      4.20793      2.29051         0.061652      0.000043     -0.377973
      4.12419      4.20798      4.54398         0.005472      0.000100     -0.002345
      9.86029      2.78075      6.68277         0.006781     -0.009904      0.004562
      2.28407      4.20793      6.84346         0.006627      0.000093     -0.002146
      0.00000      5.61057      0.00000         0.020875      0.023193      0.279036
      3.30405      5.61057      2.29051         0.010633     -0.096897     -0.140020
      1.67314      5.59340      4.50479        -0.000847      0.002605     -0.001042
      2.47804      7.01321      0.00000        -0.039999      0.033104      0.339573
      0.82601      7.01321      2.29051         0.103525     -0.049667     -0.318818
      4.12787      6.98682      4.49696         0.002433      0.000627      0.003754
      9.86032      5.63512      6.68281         0.006649      0.010250      0.004275
      2.41080      7.15572      6.75200         0.003072     -0.001346      0.003695
      0.00000      8.41585      0.00000        -0.060843     -0.005532      0.228926
      3.30405      8.41585      2.29051         0.008435     -0.067529     -0.325112
      1.66474      8.39530      4.47802        -0.003003      0.002622      0.000291
      2.47804      9.81850      0.00000        -0.090652     -0.000130      0.353621
      0.82601      9.81850      2.29051         0.100821     -0.000059     -0.327609
      4.12773      9.81850      4.45987         0.001784     -0.000021      0.008424
      9.88491      8.43124      6.70277         0.000424     -0.000076      0.008797
      2.46096      9.81850      6.70038        -0.006181      0.000070      0.001163
      4.95607      0.00000      0.00000         0.024603     -0.000689      0.349107
      8.26012      0.00000      2.29051         0.028299      0.022957     -0.396254
      6.61395     11.22177      4.45575         0.002486      0.000293      0.000387
      7.43411      1.40264      0.00000         0.029860      0.010133      0.322527
      5.78209      1.40264      2.29051        -0.098666      0.067926     -0.326640
      9.09227      1.40540      4.44843         0.003309     -0.002690     -0.000960
      4.99599     11.19546      6.67542         0.007811      0.004918      0.002887
      7.48168      1.36473      6.70619         0.005939     -0.004696      0.000376
      4.95607      2.80528      0.00000         0.013057     -0.006840      0.365327
      8.26012      2.80528      2.29051        -0.059536      0.014152     -0.400646
      6.59950      2.80433      4.48615         0.005398     -0.001795      0.004197
      7.43411      4.20793      0.00000         0.043151      0.000077      0.355062
      5.78209      4.20793      2.29051        -0.120917      0.000034     -0.243831
      9.08610      4.20796      4.44658         0.010767     -0.000095      0.006587
      5.14187      2.79160      6.77151         0.011797      0.006038      0.002617
      7.49813      4.20798      6.70292         0.018008      0.000190      0.008279
      4.95607      5.61057      0.00000         0.013017      0.006934      0.365557
      8.26012      5.61057      2.29051        -0.059604     -0.013959     -0.400613
      6.59944      5.61158      4.48611         0.007139      0.002250      0.003017
      7.43411      7.01321      0.00000         0.029805     -0.010191      0.322860
      5.78209      7.01321      2.29051        -0.098888     -0.067789     -0.326392
      9.09224      7.01046      4.44844         0.003519      0.002778     -0.001188
      5.14188      5.62430      6.77155         0.013246     -0.006105      0.000344
      7.48169      7.05120      6.70617         0.006003      0.004569      0.000160
      4.95607      8.41585      0.00000         0.024558      0.000428      0.349442
      8.26012      8.41585      2.29051         0.028280     -0.023106     -0.395994
      6.61396      8.41528      4.45574         0.002500     -0.000445      0.000077
      7.43411      9.81850      0.00000        -0.001718     -0.000128      0.316458
      5.78209      9.81850      2.29051        -0.077162     -0.000052     -0.423705
      9.11014      9.81851      4.44719        -0.003121     -0.000151     -0.002677
      4.99608      8.44153      6.67542         0.007847     -0.004867      0.002730
      7.46087      9.81854      6.69395        -0.001166     -0.000061      0.006853
      3.37270      2.71514      7.79683         0.006728      0.004619     -0.011058
      3.37269      5.70076      7.79679         0.006625     -0.004699     -0.011021
 -----------------------------------------------------------------------------------
    total drift:                               -0.021268      0.001572     -0.219077


--------------------------------------------------------------------------------------------------------



  FREE ENERGIE OF THE ION-ELECTRON SYSTEM (eV)
  ---------------------------------------------------
  free  energy   TOTEN  =      -415.84870774 eV

  energy  without entropy=     -415.19991089  energy(sigma->0) =     -415.52430932
 
 d Force = 0.1932383E-03[ 0.182E-03, 0.204E-03]  d Energy = 0.1654783E-03 0.278E-04
 d Force = 0.1310252E+02[ 0.131E+02, 0.131E+02]  d Ewald  = 0.1310252E+02 0.897E-06


--------------------------------------------------------------------------------------------------------


    POTLOK:  cpu time    0.0674: real time    0.0675


--------------------------------------------------------------------------------------------------------


 stress matrix after NEB project (eV)
   -107.88875     -0.00034      0.89734
     -0.00034    -96.85763     -0.00120
      0.89734     -0.00120    -12.74827
  FORCES: max atom, RMS     0.019821    0.006387
  FORCE total and by dimension    0.051886    0.018008
  Stress total and by dimension  145.552440  107.888752
 Quasi-Newton relaxation of ions (Broydens 2nd method)
  g(Force)  = 0.520E-04   g(Stress)= 0.000E+00

 retain information from N=  2 steps
 eigenvalues of (default step * inverse Hessian matrix)
  average eigenvalue of G=   4.9238
 eigenvalue spectrum of G is  4.9238  4.9238


--------------------------------------------------------------------------------------------------------


  
 reached required accuracy - stopping structural energy minimisation
     LOOP+:  cpu time   42.8839: real time   43.1868
    4ORBIT:  cpu time    0.0000: real time    0.0000

 total amount of memory used by VASP MPI-rank0    76013. kBytes
=======================================================================

   base      :      30000. kBytes
   nonlr-proj:       5456. kBytes
   fftplans  :       3984. kBytes
   grid      :       6141. kBytes
   one-center:        139. kBytes
   wavefun   :      30293. kBytes
 
  
  
 General timing and accounting informations for this job:
 ========================================================
  
                  Total CPU time used (sec):     1558.682
                            User time (sec):     1331.617
                          System time (sec):      227.065
                         Elapsed time (sec):     1566.261
  
                   Maximum memory used (kb):      907392.
                   Average memory used (kb):           0.
  
                          Minor page faults:       332585
                          Major page faults:            0
                 Voluntary context switches:    116066230
