       N       E                     dE             d eps       ncg     rms          rms(c)
DAV:   1     0.430890195275E+04    0.43089E+04   -0.26908E+05  3920   0.127E+03
DAV:   2    -0.689752810267E+02   -0.43779E+04   -0.40439E+04  4648   0.280E+02
DAV:   3    -0.395135693253E+03   -0.32616E+03   -0.29446E+03  4608   0.704E+01
DAV:   4    -0.411173518839E+03   -0.16038E+02   -0.15102E+02  5008   0.142E+01
DAV:   5    -0.411605844194E+03   -0.43233E+00   -0.42906E+00  4872   0.245E+00    0.880E+01
RMM:   6    -0.396348192152E+03    0.15258E+02   -0.80527E+01  3937   0.140E+01    0.634E+01
RMM:   7    -0.603382780483E+03   -0.20703E+03   -0.32897E+02  4229   0.177E+01    0.103E+02
RMM:   8    -0.526804745203E+03    0.76578E+02   -0.14064E+02  3920   0.118E+01    0.925E+01
RMM:   9    -0.416681692711E+03    0.11012E+03   -0.71752E+01  3932   0.102E+01    0.465E+01
RMM:  10    -0.402528586349E+03    0.14153E+02   -0.56134E+01  3931   0.900E+00    0.427E+01
RMM:  11    -0.394853339860E+03    0.76752E+01   -0.13750E+01  3946   0.442E+00    0.352E+01
RMM:  12    -0.387080173302E+03    0.77732E+01   -0.61127E+00  3940   0.301E+00    0.168E+01
RMM:  13    -0.384692323558E+03    0.23878E+01   -0.25010E+00  3937   0.201E+00    0.111E+01
RMM:  14    -0.384135459052E+03    0.55686E+00   -0.59442E-01  3938   0.976E-01    0.766E+00
RMM:  15    -0.384331735674E+03   -0.19628E+00   -0.31045E-01  3947   0.667E-01    0.751E+00
RMM:  16    -0.383972021819E+03    0.35971E+00   -0.26364E-01  3941   0.625E-01    0.570E+00
RMM:  17    -0.383933155052E+03    0.38867E-01   -0.11316E-01  3946   0.417E-01    0.526E+00
RMM:  18    -0.383772801501E+03    0.16035E+00   -0.97920E-02  3940   0.393E-01    0.352E+00
RMM:  19    -0.383717943618E+03    0.54858E-01   -0.68471E-02  3942   0.325E-01    0.257E+00
RMM:  20    -0.383675134658E+03    0.42809E-01   -0.35056E-02  3943   0.232E-01    0.141E+00
RMM:  21    -0.383677736071E+03   -0.26014E-02   -0.14014E-02  3945   0.145E-01    0.157E+00
RMM:  22    -0.383665673110E+03    0.12063E-01   -0.50513E-03  3965   0.848E-02    0.122E+00
RMM:  23    -0.383655800917E+03    0.98722E-02   -0.27998E-03  3951   0.629E-02    0.818E-01
RMM:  24    -0.383652586199E+03    0.32147E-02   -0.27149E-03  3940   0.603E-02    0.628E-01
RMM:  25    -0.383650259908E+03    0.23263E-02   -0.23022E-03  3941   0.568E-02    0.365E-01
RMM:  26    -0.383650159513E+03    0.10040E-03   -0.10008E-03  3947   0.381E-02    0.306E-01
RMM:  27    -0.383649871070E+03    0.28844E-03   -0.37793E-04  3944   0.244E-02    0.190E-01
RMM:  28    -0.383649663801E+03    0.20727E-03   -0.20926E-04  3941   0.181E-02    0.873E-02
RMM:  29    -0.383649662976E+03    0.82528E-06   -0.67811E-05  3965   0.957E-03    0.509E-02
RMM:  30    -0.383649751548E+03   -0.88572E-04   -0.44476E-05  3963   0.710E-03    0.306E-02
RMM:  31    -0.383649801049E+03   -0.49501E-04   -0.10247E-05  3756   0.367E-03    0.320E-02
RMM:  32    -0.383649897309E+03   -0.96260E-04   -0.72277E-06  3100   0.287E-03    0.270E-02
RMM:  33    -0.383649956830E+03   -0.59521E-04   -0.51782E-06  2887   0.242E-03    0.176E-02
RMM:  34    -0.383650041862E+03   -0.85032E-04   -0.46883E-06  2782   0.210E-03    0.152E-02
RMM:  35    -0.383650122648E+03   -0.80786E-04   -0.49102E-06  2804   0.203E-03    0.128E-02
RMM:  36    -0.383650188537E+03   -0.65889E-04   -0.42043E-06  2692   0.173E-03    0.943E-03
RMM:  37    -0.383650230647E+03   -0.42110E-04   -0.30557E-06  2554   0.143E-03    0.418E-03
RMM:  38    -0.383650247309E+03   -0.16662E-04   -0.89350E-07  2216   0.856E-04    0.305E-03
RMM:  39    -0.383650263400E+03   -0.16092E-04   -0.55434E-07  1707   0.654E-04    0.344E-03
RMM:  40    -0.383650271787E+03   -0.83870E-05   -0.30123E-07  1429   0.526E-04    0.217E-03
RMM:  41    -0.383650281204E+03   -0.94168E-05   -0.26392E-07  1441   0.485E-04    0.137E-03
RMM:  42    -0.383650291024E+03   -0.98204E-05   -0.20809E-07  1328   0.451E-04    0.194E-03
RMM:  43    -0.383650299871E+03   -0.88465E-05   -0.19635E-07  1268   0.447E-04    0.148E-03
RMM:  44    -0.383650304244E+03   -0.43734E-05   -0.13508E-07  1137   0.418E-04    0.133E-03
RMM:  45    -0.383650309385E+03   -0.51402E-05   -0.45734E-07  2007   0.650E-04    0.137E-02
RMM:  46    -0.383650310762E+03   -0.13774E-05   -0.14872E-07  1128   0.428E-04    0.162E-02
RMM:  47    -0.383650311725E+03   -0.96266E-06   -0.10182E-07  1138   0.405E-04
   1 F= -.41890553E+03 E0= -.41860607E+03  d E =-.418906E+03
       N       E                     dE             d eps       ncg     rms          rms(c)
DAV:   1    -0.383647803868E+03    0.25069E-02   -0.20745E+00  3968   0.188E+00    0.236E-01
RMM:   2    -0.383656986320E+03   -0.91825E-02   -0.28693E-02  3935   0.296E-01    0.868E-01
RMM:   3    -0.383650889939E+03    0.60964E-02   -0.26308E-03  3973   0.688E-02    0.312E-01
RMM:   4    -0.383650223352E+03    0.66659E-03   -0.54756E-04  3939   0.318E-02    0.147E-01
RMM:   5    -0.383650556702E+03   -0.33335E-03   -0.76177E-04  3940   0.342E-02    0.312E-01
RMM:   6    -0.383650119334E+03    0.43737E-03   -0.48710E-04  3939   0.276E-02    0.160E-01
RMM:   7    -0.383650094668E+03    0.24666E-04   -0.38598E-04  3938   0.252E-02    0.126E-01
RMM:   8    -0.383650009450E+03    0.85218E-04   -0.12719E-04  3928   0.147E-02    0.763E-02
RMM:   9    -0.383649983290E+03    0.26161E-04   -0.32712E-05  3931   0.734E-03    0.563E-02
RMM:  10    -0.383649964479E+03    0.18811E-04   -0.13533E-05  3903   0.457E-03    0.321E-02
RMM:  11    -0.383649955699E+03    0.87797E-05   -0.84792E-06  3880   0.375E-03    0.151E-02
RMM:  12    -0.383649954699E+03    0.10002E-05   -0.36068E-06  2658   0.243E-03    0.996E-03
RMM:  13    -0.383649954799E+03   -0.99833E-07   -0.15530E-06  2097   0.183E-03
   2 F= -.41892422E+03 E0= -.41862465E+03  d E =-.186896E-01
       N       E                     dE             d eps       ncg     rms          rms(c)
DAV:   1    -0.383607026824E+03    0.42928E-01   -0.30342E+01  3952   0.726E+00    0.842E-01
RMM:   2    -0.383697214677E+03   -0.90188E-01   -0.41748E-01  3936   0.114E+00    0.247E+00
RMM:   3    -0.383655381905E+03    0.41833E-01   -0.34343E-02  3984   0.254E-01    0.119E+00
RMM:   4    -0.383645560934E+03    0.98210E-02   -0.89671E-03  3942   0.126E-01    0.714E-01
RMM:   5    -0.383645340450E+03    0.22048E-03   -0.77186E-03  3946   0.110E-01    0.941E-01
RMM:   6    -0.383641489145E+03    0.38513E-02   -0.56836E-03  3938   0.949E-02    0.523E-01
RMM:   7    -0.383641724289E+03   -0.23514E-03   -0.52583E-03  3942   0.930E-02    0.496E-01
RMM:   8    -0.383640391298E+03    0.13330E-02   -0.17901E-03  3935   0.551E-02    0.300E-01
RMM:   9    -0.383639940506E+03    0.45079E-03   -0.45639E-04  3942   0.276E-02    0.202E-01
RMM:  10    -0.383639669216E+03    0.27129E-03   -0.18825E-04  3932   0.171E-02    0.112E-01
RMM:  11    -0.383639557758E+03    0.11146E-03   -0.11614E-04  3936   0.137E-02    0.548E-02
RMM:  12    -0.383639539500E+03    0.18258E-04   -0.48344E-05  3927   0.853E-03    0.360E-02
RMM:  13    -0.383639538126E+03    0.13734E-05   -0.16829E-05  3927   0.521E-03    0.331E-02
RMM:  14    -0.383639533433E+03    0.46932E-05   -0.12070E-05  3906   0.440E-03    0.185E-02
RMM:  15    -0.383639532298E+03    0.11345E-05   -0.34019E-06  2634   0.252E-03    0.446E-03
RMM:  16    -0.383639533338E+03   -0.10396E-05   -0.97017E-07  2102   0.151E-03    0.484E-03
RMM:  17    -0.383639534623E+03   -0.12844E-05   -0.33406E-07  2085   0.904E-04    0.349E-03
RMM:  18    -0.383639535086E+03   -0.46353E-06   -0.10781E-07  1951   0.516E-04
   3 F= -.41898678E+03 E0= -.41868677E+03  d E =-.625644E-01
       N       E                     dE             d eps       ncg     rms          rms(c)
DAV:   1    -0.383571712593E+03    0.67822E-01   -0.37510E+01  3920   0.822E+00    0.952E-01
RMM:   2    -0.383701444200E+03   -0.12973E+00   -0.55522E-01  3948   0.128E+00    0.301E+00
RMM:   3    -0.383630434637E+03    0.71010E-01   -0.43986E-02  4007   0.287E-01    0.110E+00
RMM:   4    -0.383624489925E+03    0.59447E-02   -0.12692E-02  3945   0.149E-01    0.101E+00
RMM:   5    -0.383620013696E+03    0.44762E-02   -0.70243E-03  3949   0.107E-01    0.867E-01
RMM:   6    -0.383617354193E+03    0.26595E-02   -0.60885E-03  3940   0.991E-02    0.587E-01
RMM:   7    -0.383617605892E+03   -0.25170E-03   -0.59186E-03  3944   0.985E-02    0.570E-01
RMM:   8    -0.383615782619E+03    0.18233E-02   -0.20164E-03  3935   0.581E-02    0.328E-01
RMM:   9    -0.383615225913E+03    0.55671E-03   -0.52125E-04  3946   0.295E-02    0.207E-01
RMM:  10    -0.383614922408E+03    0.30351E-03   -0.21082E-04  3935   0.184E-02    0.110E-01
RMM:  11    -0.383614817891E+03    0.10452E-03   -0.12228E-04  3938   0.137E-02    0.556E-02
RMM:  12    -0.383614801650E+03    0.16241E-04   -0.49309E-05  3930   0.875E-03    0.403E-02
RMM:  13    -0.383614799998E+03    0.16523E-05   -0.18718E-05  3927   0.547E-03    0.359E-02
RMM:  14    -0.383614792591E+03    0.74073E-05   -0.12521E-05  3906   0.452E-03    0.169E-02
RMM:  15    -0.383614790757E+03    0.18339E-05   -0.31508E-06  2518   0.248E-03    0.448E-03
RMM:  16    -0.383614791248E+03   -0.49139E-06   -0.86804E-07  2090   0.142E-03
   4 F= -.41904289E+03 E0= -.41874237E+03  d E =-.561107E-01
       N       E                     dE             d eps       ncg     rms          rms(c)
DAV:   1    -0.383343184884E+03    0.27161E+00   -0.14875E+02  3920   0.165E+01    0.200E+00
RMM:   2    -0.383956461716E+03   -0.61328E+00   -0.23312E+00  3949   0.260E+00    0.681E+00
RMM:   3    -0.383577467850E+03    0.37899E+00   -0.18700E-01  4004   0.590E-01    0.196E+00
RMM:   4    -0.383569679685E+03    0.77882E-02   -0.57268E-02  3948   0.314E-01    0.235E+00
RMM:   5    -0.383543053787E+03    0.26626E-01   -0.25333E-02  3953   0.206E-01    0.172E+00
RMM:   6    -0.383534025633E+03    0.90282E-02   -0.22836E-02  3942   0.194E-01    0.128E+00
RMM:   7    -0.383533457010E+03    0.56862E-03   -0.22866E-02  3945   0.193E-01    0.119E+00
RMM:   8    -0.383525310446E+03    0.81466E-02   -0.79095E-03  3941   0.114E-01    0.638E-01
RMM:   9    -0.383523295806E+03    0.20146E-02   -0.20923E-03  3943   0.586E-02    0.402E-01
RMM:  10    -0.383522169216E+03    0.11266E-02   -0.79662E-04  3935   0.364E-02    0.220E-01
RMM:  11    -0.383521776331E+03    0.39288E-03   -0.40543E-04  3943   0.243E-02    0.110E-01
RMM:  12    -0.383521692548E+03    0.83784E-04   -0.17910E-04  3944   0.170E-02    0.744E-02
RMM:  13    -0.383521683436E+03    0.91119E-05   -0.78406E-05  3939   0.112E-02    0.622E-02
RMM:  14    -0.383521665087E+03    0.18349E-04   -0.46712E-05  3927   0.876E-03    0.344E-02
RMM:  15    -0.383521657233E+03    0.78547E-05   -0.14708E-05  3920   0.507E-03    0.190E-02
RMM:  16    -0.383521656286E+03    0.94686E-06   -0.25149E-06  2358   0.222E-03
   5 F= -.41911158E+03 E0= -.41880958E+03  d E =-.686845E-01
       N       E                     dE             d eps       ncg     rms          rms(c)
DAV:   1    -0.383431099613E+03    0.90558E-01   -0.26758E+01  3920   0.713E+00    0.884E-01
RMM:   2    -0.383541794783E+03   -0.11070E+00   -0.44213E-01  3954   0.111E+00    0.285E+00
RMM:   3    -0.383473994782E+03    0.67800E-01   -0.33429E-02  4001   0.250E-01    0.766E-01
RMM:   4    -0.383474700664E+03   -0.70588E-03   -0.11021E-02  3948   0.137E-01    0.107E+00
RMM:   5    -0.383469017655E+03    0.56830E-02   -0.42677E-03  3950   0.849E-02    0.743E-01
RMM:   6    -0.383467723033E+03    0.12946E-02   -0.43043E-03  3944   0.839E-02    0.589E-01
RMM:   7    -0.383467354561E+03    0.36847E-03   -0.41280E-03  3941   0.821E-02    0.517E-01
RMM:   8    -0.383465874825E+03    0.14797E-02   -0.14346E-03  3941   0.485E-02    0.283E-01
RMM:   9    -0.383465468299E+03    0.40653E-03   -0.39253E-04  3941   0.254E-02    0.171E-01
RMM:  10    -0.383465260965E+03    0.20733E-03   -0.14650E-04  3939   0.156E-02    0.929E-02
RMM:  11    -0.383465190323E+03    0.70641E-04   -0.83837E-05  3940   0.109E-02    0.469E-02
RMM:  12    -0.383465178668E+03    0.11655E-04   -0.39005E-05  3935   0.793E-03    0.370E-02
RMM:  13    -0.383465177358E+03    0.13105E-05   -0.14249E-05  3923   0.479E-03    0.309E-02
RMM:  14    -0.383465173177E+03    0.41809E-05   -0.71222E-06  3680   0.348E-03    0.172E-02
RMM:  15    -0.383465171354E+03    0.18230E-05   -0.21988E-06  2211   0.212E-03    0.930E-03
RMM:  16    -0.383465171005E+03    0.34840E-06   -0.67980E-07  2080   0.122E-03
   6 F= -.41912391E+03 E0= -.41882120E+03  d E =-.123335E-01
       N       E                     dE             d eps       ncg     rms          rms(c)
DAV:   1    -0.383432751809E+03    0.32420E-01   -0.47938E+00  3936   0.310E+00    0.403E-01
RMM:   2    -0.383451951757E+03   -0.19200E-01   -0.87162E-02  3957   0.478E-01    0.115E+00
RMM:   3    -0.383441167922E+03    0.10784E-01   -0.61969E-03  4006   0.107E-01    0.342E-01
RMM:   4    -0.383441497057E+03   -0.32913E-03   -0.22723E-03  3943   0.610E-02    0.501E-01
RMM:   5    -0.383440314510E+03    0.11825E-02   -0.71571E-04  3950   0.352E-02    0.338E-01
RMM:   6    -0.383440067937E+03    0.24657E-03   -0.81406E-04  3944   0.364E-02    0.278E-01
RMM:   7    -0.383439925271E+03    0.14267E-03   -0.72782E-04  3940   0.345E-02    0.227E-01
RMM:   8    -0.383439666787E+03    0.25848E-03   -0.26289E-04  3939   0.206E-02    0.127E-01
RMM:   9    -0.383439581916E+03    0.84871E-04   -0.81090E-05  3941   0.115E-02    0.702E-02
RMM:  10    -0.383439548798E+03    0.33118E-04   -0.25841E-05  3920   0.661E-03    0.399E-02
RMM:  11    -0.383439535450E+03    0.13349E-04   -0.15857E-05  3912   0.471E-03    0.181E-02
RMM:  12    -0.383439534037E+03    0.14127E-05   -0.81959E-06  3852   0.368E-03    0.165E-02
RMM:  13    -0.383439534087E+03   -0.50037E-07   -0.21708E-06  2229   0.203E-03
   7 F= -.41912672E+03 E0= -.41882380E+03  d E =-.281039E-02
       N       E                     dE             d eps       ncg     rms          rms(c)
DAV:   1    -0.383412249964E+03    0.27284E-01   -0.33860E+00  3936   0.266E+00    0.357E-01
RMM:   2    -0.383425372843E+03   -0.13123E-01   -0.66163E-02  3954   0.407E-01    0.924E-01
RMM:   3    -0.383418909271E+03    0.64636E-02   -0.46126E-03  4002   0.915E-02    0.343E-01
RMM:   4    -0.383418908958E+03    0.31304E-06   -0.17812E-03  3943   0.534E-02    0.436E-01
RMM:   5    -0.383418002823E+03    0.90614E-03   -0.52871E-04  3949   0.303E-02    0.291E-01
RMM:   6    -0.383417835050E+03    0.16777E-03   -0.58027E-04  3944   0.306E-02    0.247E-01
RMM:   7    -0.383417679953E+03    0.15510E-03   -0.49868E-04  3943   0.286E-02    0.185E-01
RMM:   8    -0.383417526133E+03    0.15382E-03   -0.18547E-04  3943   0.173E-02    0.114E-01
RMM:   9    -0.383417457146E+03    0.68987E-04   -0.60659E-05  3939   0.100E-02    0.577E-02
RMM:  10    -0.383417434853E+03    0.22293E-04   -0.17898E-05  3921   0.547E-03    0.319E-02
RMM:  11    -0.383417426684E+03    0.81685E-05   -0.10688E-05  3878   0.392E-03    0.168E-02
RMM:  12    -0.383417425717E+03    0.96689E-06   -0.52186E-06  3267   0.297E-03
   8 F= -.41912778E+03 E0= -.41882472E+03  d E =-.106091E-02
       N       E                     dE             d eps       ncg     rms          rms(c)
DAV:   1    -0.383417708702E+03   -0.28202E-03   -0.51715E-02  3968   0.344E-01    0.463E-02
RMM:   2    -0.383417887970E+03   -0.17927E-03   -0.11862E-03  3954   0.511E-02    0.989E-02
RMM:   3    -0.383417881610E+03    0.63605E-05   -0.94554E-05  3990   0.125E-02    0.910E-02
RMM:   4    -0.383417849246E+03    0.32363E-04   -0.51697E-05  3938   0.861E-03    0.774E-02
RMM:   5    -0.383417811697E+03    0.37549E-04   -0.18327E-05  3923   0.552E-03    0.409E-02
RMM:   6    -0.383417805239E+03    0.64584E-05   -0.11461E-05  3912   0.430E-03    0.264E-02
RMM:   7    -0.383417802830E+03    0.24093E-05   -0.75586E-06  3822   0.356E-03    0.159E-02
RMM:   8    -0.383417802702E+03    0.12771E-06   -0.41481E-06  2897   0.270E-03
   9 F= -.41912821E+03 E0= -.41882516E+03  d E =-.427601E-03
       N       E                     dE             d eps       ncg     rms          rms(c)
DAV:   1    -0.383424317143E+03   -0.65143E-02   -0.90351E-01  3936   0.134E+00    0.159E-01
RMM:   2    -0.383427412563E+03   -0.30954E-02   -0.15677E-02  3948   0.205E-01    0.444E-01
RMM:   3    -0.383426459605E+03    0.95296E-03   -0.13739E-03  3996   0.483E-02    0.311E-01
RMM:   4    -0.383425771086E+03    0.68852E-03   -0.42190E-04  3942   0.263E-02    0.165E-01
RMM:   5    -0.383425662672E+03    0.10841E-03   -0.23170E-04  3942   0.193E-02    0.142E-01
RMM:   6    -0.383425575610E+03    0.87063E-04   -0.13085E-04  3939   0.147E-02    0.785E-02
RMM:   7    -0.383425594728E+03   -0.19118E-04   -0.13362E-04  3941   0.147E-02    0.944E-02
RMM:   8    -0.383425553170E+03    0.41558E-04   -0.68571E-05  3937   0.107E-02    0.562E-02
RMM:   9    -0.383425536073E+03    0.17097E-04   -0.20411E-05  3920   0.586E-03    0.317E-02
RMM:  10    -0.383425529641E+03    0.64323E-05   -0.51910E-06  3246   0.306E-03    0.177E-02
RMM:  11    -0.383425527352E+03    0.22887E-05   -0.25766E-06  2271   0.215E-03    0.111E-02
RMM:  12    -0.383425526668E+03    0.68384E-06   -0.17959E-06  2112   0.192E-03
  10 F= -.41912947E+03 E0= -.41882655E+03  d E =-.126196E-02
       N       E                     dE             d eps       ncg     rms          rms(c)
DAV:   1    -0.383428537692E+03   -0.30103E-02   -0.19648E-01  3936   0.634E-01    0.769E-02
RMM:   2    -0.383429506880E+03   -0.96919E-03   -0.37067E-03  3951   0.974E-02    0.269E-01
RMM:   3    -0.383428977273E+03    0.52961E-03   -0.33862E-04  3997   0.237E-02    0.129E-01
RMM:   4    -0.383428873723E+03    0.10355E-03   -0.97318E-05  3944   0.127E-02    0.836E-02
RMM:   5    -0.383428840442E+03    0.33281E-04   -0.48617E-05  3933   0.893E-03    0.616E-02
RMM:   6    -0.383428825868E+03    0.14574E-04   -0.26298E-05  3926   0.661E-03    0.364E-02
RMM:   7    -0.383428827601E+03   -0.17321E-05   -0.28526E-05  3930   0.685E-03    0.397E-02
RMM:   8    -0.383428820137E+03    0.74640E-05   -0.14030E-05  3914   0.486E-03    0.264E-02
RMM:   9    -0.383428816411E+03    0.37260E-05   -0.38362E-06  2732   0.263E-03    0.143E-02
RMM:  10    -0.383428815201E+03    0.12094E-05   -0.11523E-06  2058   0.161E-03    0.790E-03
RMM:  11    -0.383428814798E+03    0.40281E-06   -0.56112E-07  2052   0.104E-03
  11 F= -.41912988E+03 E0= -.41882703E+03  d E =-.412366E-03
       N       E                     dE             d eps       ncg     rms          rms(c)
DAV:   1    -0.383431311955E+03   -0.24968E-02   -0.21249E-01  3936   0.672E-01    0.799E-02
RMM:   2    -0.383432187630E+03   -0.87567E-03   -0.42211E-03  3950   0.102E-01    0.240E-01
RMM:   3    -0.383431861008E+03    0.32662E-03   -0.36361E-04  3995   0.246E-02    0.153E-01
RMM:   4    -0.383431703845E+03    0.15716E-03   -0.11048E-04  3943   0.135E-02    0.932E-02
RMM:   5    -0.383431659219E+03    0.44626E-04   -0.52976E-05  3934   0.936E-03    0.605E-02
RMM:   6    -0.383431645552E+03    0.13667E-04   -0.26170E-05  3927   0.659E-03    0.380E-02
RMM:   7    -0.383431647384E+03   -0.18315E-05   -0.28835E-05  3930   0.692E-03    0.411E-02
RMM:   8    -0.383431639671E+03    0.77128E-05   -0.15748E-05  3918   0.513E-03    0.266E-02
RMM:   9    -0.383431635623E+03    0.40479E-05   -0.46530E-06  3040   0.288E-03    0.132E-02
RMM:  10    -0.383431634566E+03    0.10572E-05   -0.10921E-06  2044   0.156E-03    0.765E-03
RMM:  11    -0.383431634194E+03    0.37178E-06   -0.55258E-07  2045   0.103E-03
  12 F= -.41913024E+03 E0= -.41882743E+03  d E =-.357659E-03
       N       E                     dE             d eps       ncg     rms          rms(c)
DAV:   1    -0.383432247495E+03   -0.61293E-03   -0.46564E-02  3936   0.320E-01    0.378E-02
RMM:   2    -0.383432423571E+03   -0.17608E-03   -0.97947E-04  3949   0.480E-02    0.101E-01
RMM:   3    -0.383432388528E+03    0.35043E-04   -0.83947E-05  3996   0.117E-02    0.826E-02
RMM:   4    -0.383432341253E+03    0.47275E-04   -0.26184E-05  3939   0.647E-03    0.482E-02
RMM:   5    -0.383432328629E+03    0.12624E-04   -0.11352E-05  3917   0.438E-03    0.254E-02
RMM:   6    -0.383432326121E+03    0.25074E-05   -0.52050E-06  3216   0.298E-03    0.170E-02
RMM:   7    -0.383432326038E+03    0.83273E-07   -0.59501E-06  3603   0.326E-03
  13 F= -.41913041E+03 E0= -.41882759E+03  d E =-.164083E-03
       N       E                     dE             d eps       ncg     rms          rms(c)
DAV:   1    -0.383433147842E+03   -0.82172E-03   -0.78815E-02  3920   0.413E-01    0.484E-02
RMM:   2    -0.383433347706E+03   -0.19986E-03   -0.15876E-03  3953   0.618E-02    0.855E-02
RMM:   3    -0.383433440526E+03   -0.92820E-04   -0.13740E-04  3998   0.152E-02    0.133E-01
RMM:   4    -0.383433306380E+03    0.13415E-03   -0.49563E-05  3942   0.839E-03    0.633E-02
RMM:   5    -0.383433282900E+03    0.23480E-04   -0.18658E-05  3929   0.556E-03    0.361E-02
RMM:   6    -0.383433276117E+03    0.67828E-05   -0.77138E-06  3812   0.361E-03    0.177E-02
RMM:   7    -0.383433278893E+03   -0.27759E-05   -0.10874E-05  3905   0.423E-03    0.267E-02
RMM:   8    -0.383433275769E+03    0.31236E-05   -0.64602E-06  3616   0.332E-03    0.155E-02
RMM:   9    -0.383433274250E+03    0.15188E-05   -0.18828E-06  2155   0.193E-03    0.786E-03
RMM:  10    -0.383433273903E+03    0.34741E-06   -0.50394E-07  2007   0.111E-03
  14 F= -.41913057E+03 E0= -.41882774E+03  d E =-.167129E-03
       N       E                     dE             d eps       ncg     rms          rms(c)
DAV:   1    -0.383433446749E+03   -0.17250E-03   -0.68683E-02  3920   0.388E-01    0.436E-02
RMM:   2    -0.383433623217E+03   -0.17647E-03   -0.14431E-03  3955   0.579E-02    0.786E-02
RMM:   3    -0.383433696877E+03   -0.73660E-04   -0.11737E-04  4001   0.140E-02    0.120E-01
RMM:   4    -0.383433590552E+03    0.10632E-03   -0.41032E-05  3942   0.773E-03    0.609E-02
RMM:   5    -0.383433568021E+03    0.22530E-04   -0.16457E-05  3926   0.522E-03    0.300E-02
RMM:   6    -0.383433564280E+03    0.37416E-05   -0.66521E-06  3646   0.332E-03    0.198E-02
RMM:   7    -0.383433563809E+03    0.47081E-06   -0.74760E-06  3799   0.358E-03
  15 F= -.41913071E+03 E0= -.41882787E+03  d E =-.133496E-03
       N       E                     dE             d eps       ncg     rms          rms(c)
DAV:   1    -0.383433635528E+03   -0.71248E-04   -0.14305E-02  3952   0.177E-01    0.261E-02
RMM:   2    -0.383433689016E+03   -0.53488E-04   -0.31638E-04  3954   0.270E-02    0.615E-02
RMM:   3    -0.383433665027E+03    0.23988E-04   -0.34616E-05  3964   0.801E-03    0.287E-02
RMM:   4    -0.383433679049E+03   -0.14022E-04   -0.86609E-06  3696   0.345E-03    0.477E-02
RMM:   5    -0.383433661638E+03    0.17412E-04   -0.56644E-06  3300   0.279E-03    0.202E-02
RMM:   6    -0.383433658755E+03    0.28829E-05   -0.18221E-06  2158   0.193E-03    0.904E-03
RMM:   7    -0.383433659676E+03   -0.92088E-06   -0.17555E-06  2168   0.186E-03
  16 F= -.41913076E+03 E0= -.41882792E+03  d E =-.549715E-04
       N       E                     dE             d eps       ncg     rms          rms(c)
DAV:   1    -0.383433642943E+03    0.15812E-04   -0.38307E-02  3920   0.289E-01    0.334E-02
RMM:   2    -0.383433728864E+03   -0.85921E-04   -0.79596E-04  3949   0.430E-02    0.475E-02
RMM:   3    -0.383433720775E+03    0.80886E-05   -0.55675E-05  3983   0.103E-02    0.421E-02
RMM:   4    -0.383433742825E+03   -0.22050E-04   -0.17561E-05  3930   0.519E-03    0.622E-02
RMM:   5    -0.383433711287E+03    0.31538E-04   -0.68107E-06  3458   0.301E-03    0.240E-02
RMM:   6    -0.383433709047E+03    0.22406E-05   -0.38251E-06  2723   0.256E-03    0.163E-02
RMM:   7    -0.383433708380E+03    0.66659E-06   -0.49488E-06  3166   0.302E-03
  17 F= -.41913084E+03 E0= -.41882799E+03  d E =-.804301E-04
       N       E                     dE             d eps       ncg     rms          rms(c)
DAV:   1    -0.383433686347E+03    0.22700E-04   -0.15555E-02  3920   0.184E-01    0.243E-02
RMM:   2    -0.383433734561E+03   -0.48214E-04   -0.33132E-04  3952   0.277E-02    0.526E-02
RMM:   3    -0.383433717887E+03    0.16673E-04   -0.30337E-05  3978   0.752E-03    0.274E-02
RMM:   4    -0.383433734836E+03   -0.16948E-04   -0.87404E-06  3697   0.346E-03    0.497E-02
RMM:   5    -0.383433714952E+03    0.19884E-04   -0.55999E-06  3275   0.276E-03    0.201E-02
RMM:   6    -0.383433712360E+03    0.25913E-05   -0.16637E-06  2160   0.184E-03    0.918E-03
RMM:   7    -0.383433713246E+03   -0.88553E-06   -0.20266E-06  2219   0.199E-03
  18 F= -.41913089E+03 E0= -.41882803E+03  d E =-.469525E-04
       N       E                     dE             d eps       ncg     rms          rms(c)
DAV:   1    -0.383433771347E+03   -0.58987E-04   -0.91476E-03  3920   0.141E-01    0.161E-02
RMM:   2    -0.383433794124E+03   -0.22777E-04   -0.18491E-04  3949   0.208E-02    0.311E-02
RMM:   3    -0.383433788465E+03    0.56598E-05   -0.13488E-05  3958   0.507E-03    0.162E-02
RMM:   4    -0.383433797864E+03   -0.93996E-05   -0.42085E-06  2798   0.256E-03    0.352E-02
RMM:   5    -0.383433787477E+03    0.10387E-04   -0.19515E-06  2263   0.180E-03    0.132E-02
RMM:   6    -0.383433786604E+03    0.87345E-06   -0.78849E-07  2062   0.129E-03
  19 F= -.41913092E+03 E0= -.41882805E+03  d E =-.282420E-04
