 vasp.5.4.4.18Apr17-6-g9f103f2a35 (build Nov 06 2023 00:46:14) complex          
  
 executed on             LinuxIFC date 2025.07.24  16:57:13
 running on   64 total cores
 distrk:  each k-point on   64 cores,    1 groups
 distr:  one band on NCORES_PER_BAND=   8 cores,    8 groups


--------------------------------------------------------------------------------------------------------


 INCAR:
 POTCAR:    PAW_PBE Pt 04Feb2005                  
 POTCAR:    PAW_PBE O 08Apr2002                   
 POTCAR:    PAW_PBE Pt 04Feb2005                  
   VRHFIN =Pt: s1d9                                                             
   LEXCH  = PE                                                                  
   EATOM  =   729.1176 eV,   53.5886 Ry                                         
                                                                                
   TITEL  = PAW_PBE Pt 04Feb2005                                                
   LULTRA =        F    use ultrasoft PP ?                                      
   IUNSCR =        1    unscreen: 0-lin 1-nonlin 2-no                           
   RPACOR =    2.330    partial core radius                                     
   POMASS =  195.080; ZVAL   =   10.000    mass and valenz                      
   RCORE  =    2.600    outmost cutoff radius                                   
   RWIGS  =    2.750; RWIGS  =    1.455    wigner-seitz radius (au A)           
   ENMAX  =  230.283; ENMIN  =  172.712 eV                                      
   ICORE  =        3    local potential                                         
   LCOR   =        T    correct aug charges                                     
   LPAW   =        T    paw PP                                                  
   EAUG   =  358.966                                                            
   DEXC   =    0.000                                                            
   RMAX   =    2.658    core radius for proj-oper                               
   RAUG   =    1.300    factor for augmentation sphere                          
   RDEP   =    2.761    radius for radial grids                                 
   RDEPT  =    2.203    core radius for aug-charge                              
                                                                                
   Atomic configuration                                                         
   16 entries                                                                   
     n  l   j            E        occ.                                          
     1  0  0.50    -78401.1885   2.0000                                         
     2  0  0.50    -13770.7750   2.0000                                         
     2  1  1.50    -11931.0468   6.0000                                         
     3  0  0.50     -3234.7234   2.0000                                         
     3  1  1.50     -2699.2216   6.0000                                         
     3  2  2.50     -2119.5714  10.0000                                         
     4  0  0.50      -695.1528   2.0000                                         
     4  1  1.50      -519.6034   6.0000                                         
     4  2  2.50      -306.6786  10.0000                                         
     4  3  3.50       -70.1041  14.0000                                         
     5  0  0.50      -101.7747   2.0000                                         
     5  1  1.50       -55.9873   6.0000                                         
     5  2  2.50        -6.1423   9.0000                                         
     6  0  0.50        -5.6573   1.0000                                         
     6  1  1.50        -6.8029   0.0000                                         
     5  3  2.50        -1.3606   0.0000                                         
   Description                                                                  
     l       E           TYP  RCUT    TYP  RCUT                                 
     2     -6.1423404     23  2.500                                             
     2     -7.5029230     23  2.500                                             
     0     -5.6573207     23  2.500                                             
     0      0.7416693     23  2.500                                             
     1     -2.7211652     23  2.600                                             
     1     20.4087390     23  2.600                                             
     3     -1.3605826     23  2.500                                             
  local pseudopotential read in
  partial core-charges read in
  partial kinetic energy density read in
  atomic valenz-charges read in
  non local Contribution for L=           2  read in
    real space projection operators read in
  non local Contribution for L=           2  read in
    real space projection operators read in
  non local Contribution for L=           0  read in
    real space projection operators read in
  non local Contribution for L=           0  read in
    real space projection operators read in
  non local Contribution for L=           1  read in
    real space projection operators read in
  non local Contribution for L=           1  read in
    real space projection operators read in
    PAW grid and wavefunctions read in
 
   number of l-projection  operators is LMAX  =           6
   number of lm-projection operators is LMMAX =          18
 
 POTCAR:    PAW_PBE O 08Apr2002                   
   VRHFIN =O: s2p4                                                              
   LEXCH  = PE                                                                  
   EATOM  =   432.3788 eV,   31.7789 Ry                                         
                                                                                
   TITEL  = PAW_PBE O 08Apr2002                                                 
   LULTRA =        F    use ultrasoft PP ?                                      
   IUNSCR =        1    unscreen: 0-lin 1-nonlin 2-no                           
   RPACOR =    1.200    partial core radius                                     
   POMASS =   16.000; ZVAL   =    6.000    mass and valenz                      
   RCORE  =    1.520    outmost cutoff radius                                   
   RWIGS  =    1.550; RWIGS  =    0.820    wigner-seitz radius (au A)           
   ENMAX  =  400.000; ENMIN  =  300.000 eV                                      
   ICORE  =        2    local potential                                         
   LCOR   =        T    correct aug charges                                     
   LPAW   =        T    paw PP                                                  
   EAUG   =  605.392                                                            
   DEXC   =    0.000                                                            
   RMAX   =    1.553    core radius for proj-oper                               
   RAUG   =    1.300    factor for augmentation sphere                          
   RDEP   =    1.550    radius for radial grids                                 
   RDEPT  =    1.329    core radius for aug-charge                              
                                                                                
   Atomic configuration                                                         
    4 entries                                                                   
     n  l   j            E        occ.                                          
     1  0  0.50      -514.6923   2.0000                                         
     2  0  0.50       -23.9615   2.0000                                         
     2  1  0.50        -9.0305   4.0000                                         
     3  2  1.50        -9.5241   0.0000                                         
   Description                                                                  
     l       E           TYP  RCUT    TYP  RCUT                                 
     0    -23.9615318     23  1.200                                             
     0     -9.5240782     23  1.200                                             
     1     -9.0304911     23  1.520                                             
     1      8.1634956     23  1.520                                             
     2     -9.5240782      7  1.500                                             
  local pseudopotential read in
  partial core-charges read in
  partial kinetic energy density read in
  kinetic energy density of atom read in
  atomic valenz-charges read in
  non local Contribution for L=           0  read in
    real space projection operators read in
  non local Contribution for L=           0  read in
    real space projection operators read in
  non local Contribution for L=           1  read in
    real space projection operators read in
  non local Contribution for L=           1  read in
    real space projection operators read in
    PAW grid and wavefunctions read in
 
   number of l-projection  operators is LMAX  =           4
   number of lm-projection operators is LMMAX =           8
 
 Optimization of the real space projectors (new method)

 maximal supplied QI-value         = 14.36
 optimisation between [QCUT,QGAM] = [ 10.77, 21.69] = [ 32.49,131.70] Ry 
 Optimized for a Real-space Cutoff    1.46 Angstroem

   l    n(q)    QCUT    max X(q) W(low)/X(q) W(high)/X(q)  e(spline) 
   2      9    10.771    66.195    0.13E-03    0.31E-03    0.27E-06
   2      9    10.771    64.643    0.13E-03    0.32E-03    0.28E-06
   0     10    10.771    95.520    0.41E-04    0.13E-03    0.15E-06
   0     10    10.771    63.403    0.40E-04    0.12E-03    0.14E-06
   1      9    10.771    19.961    0.42E-03    0.19E-03    0.28E-06
   1      9    10.771    13.289    0.35E-03    0.16E-03    0.23E-06
 Optimization of the real space projectors (new method)

 maximal supplied QI-value         = 24.76
 optimisation between [QCUT,QGAM] = [ 10.64, 21.54] = [ 31.73,129.89] Ry 
 Optimized for a Real-space Cutoff    1.23 Angstroem

   l    n(q)    QCUT    max X(q) W(low)/X(q) W(high)/X(q)  e(spline) 
   0      8    10.645    20.381    0.38E-03    0.60E-03    0.15E-06
   0      8    10.645    15.268    0.40E-03    0.65E-03    0.17E-06
   1      7    10.645     5.964    0.30E-03    0.63E-03    0.18E-06
   1      7    10.645     5.382    0.24E-03    0.53E-03    0.16E-06
  PAW_PBE Pt 04Feb2005                  :
 energy of atom  1       EATOM= -729.1176
 kinetic energy error for atom=    0.0051 (will be added to EATOM!!)
  PAW_PBE O 08Apr2002                   :
 energy of atom  2       EATOM= -432.3788
 kinetic energy error for atom=    0.0389 (will be added to EATOM!!)
 
 
 POSCAR: Pt  O                                   
  positions in cartesian coordinates
  No initial velocities read in
 exchange correlation table for  LEXCH =        8
   RHO(1)=    0.500       N(1)  =     2000
   RHO(2)=  100.500       N(2)  =     4000

 VTST: version 3.2, (02/03/18)

 CHAIN: initializing optimizer
 
 OPT: Using VASP QUASI-newton optimizer
 CHAIN: Read ICHAIN            0
 
 POSCAR: Pt  O                                   
  positions in cartesian coordinates
  No initial velocities read in
 


--------------------------------------------------------------------------------------------------------


 ion  position               nearest neighbor table
   1  0.000  0.000  0.000-   9 2.75  25 2.75   5 2.79  29 2.79  28 2.79   4 2.79  36 2.79  60 2.79
                            34 2.81
   2  0.333  0.000  0.092-  10 2.75  26 2.75   4 2.79  28 2.79   5 2.79  29 2.79  37 2.79  61 2.79
                             3 2.80  30 2.80  33 2.81   6 2.87
   3  0.169  1.000  0.183-  11 2.74  27 2.74  30 2.78  62 2.79   2 2.80  29 2.80  38 2.80   5 2.80
                             6 2.80   8 2.81  32 2.83   7 2.85
   4  0.250  0.125  0.000-  12 2.75  28 2.75   2 2.79  10 2.79   9 2.79   1 2.79  33 2.79  41 2.79
                             5 2.81
   5  0.083  0.125  0.092-  13 2.75  29 2.75  11 2.78   9 2.79   1 2.79  10 2.79   2 2.79  34 2.79
                            42 2.79   3 2.80  38 2.80   4 2.81
   6  0.419  0.127  0.186-  14 2.73  43 2.75  30 2.77  35 2.79  11 2.79  39 2.80   3 2.80   8 2.81
                            47 2.81  10 2.85  37 2.86   2 2.87
   7  0.001  0.999  0.277-  31 2.73  15 2.74   8 2.76  40 2.77  64 2.78  32 2.78  62 2.82  38 2.83
                             3 2.85
   8  0.247  0.124  0.277-  32 2.74  16 2.76   7 2.76  15 2.77   6 2.81   3 2.81  47 2.82  39 2.82
                            11 2.83
   9  0.000  0.250  0.000-   1 2.75  17 2.75  13 2.79   5 2.79   4 2.79  12 2.79  36 2.79  44 2.79
                            42 2.81
  10  0.333  0.250  0.092-   2 2.75  18 2.75  12 2.79   4 2.79  13 2.79   5 2.79  37 2.79  45 2.79
                            14 2.79  11 2.80  41 2.81   6 2.85
  11  0.167  0.249  0.183-   3 2.74  16 2.77  19 2.77   5 2.78  38 2.78  46 2.79  14 2.79  13 2.79
                             6 2.79  10 2.80   8 2.83  15 2.86
  12  0.250  0.375  0.000-   4 2.75  20 2.75  18 2.79  10 2.79   9 2.79  17 2.79  41 2.79  49 2.79
                            13 2.81
  13  0.083  0.375  0.092-   5 2.75  21 2.75  46 2.78  19 2.79  11 2.79  17 2.79   9 2.79  18 2.79
                            42 2.79  10 2.79  50 2.79  12 2.81
  14  0.416  0.375  0.183-   6 2.73  22 2.73  19 2.79  11 2.79  43 2.79  51 2.79  18 2.79  10 2.79
                            45 2.81  16 2.82  55 2.90  47 2.90
  15  1.000  0.249  0.277-  48 2.73  16 2.74   7 2.74  40 2.77   8 2.77  23 2.78  38 2.82  46 2.85
                            11 2.86
  16  0.243  0.375  0.274-  23 2.74  15 2.74  24 2.76   8 2.76  19 2.77  11 2.77  14 2.82  55 2.86
                            47 2.86
  17  0.000  0.500  0.000-   9 2.75  25 2.75  21 2.79  13 2.79  12 2.79  20 2.79  44 2.79  52 2.79
                            50 2.81
  18  0.333  0.500  0.092-  10 2.75  26 2.75  20 2.79  12 2.79  21 2.79  13 2.79  45 2.79  53 2.79
                            14 2.79  19 2.80  49 2.81  22 2.85
  19  0.167  0.501  0.183-  27 2.74  16 2.77  11 2.77  21 2.78  54 2.78  14 2.79  13 2.79  46 2.79
                            18 2.80  22 2.80  24 2.83  23 2.86
  20  0.250  0.625  0.000-  12 2.75  28 2.75  26 2.79  18 2.79  17 2.79  25 2.79  49 2.79  57 2.79
                            21 2.81
  21  0.083  0.625  0.092-  13 2.75  29 2.75  19 2.78  25 2.79  17 2.79  26 2.79  18 2.79  50 2.79
                            58 2.79  27 2.80  54 2.80  20 2.81
  22  0.419  0.623  0.186-  14 2.73  51 2.75  30 2.77  59 2.79  63 2.79  19 2.80  27 2.80  24 2.81
                            55 2.81  18 2.85  53 2.86  26 2.87
  23  1.000  0.501  0.277-  48 2.73  16 2.74  31 2.74  56 2.77  24 2.77  15 2.78  54 2.82  46 2.85
                            19 2.86
  24  0.247  0.626  0.277-  32 2.74  16 2.76  31 2.76  23 2.77  22 2.81  27 2.81  55 2.82  19 2.83
                            63 2.83
  25  0.000  0.750  0.000-   1 2.75  17 2.75  21 2.79  29 2.79  28 2.79  20 2.79  52 2.79  60 2.79
                            58 2.81
  26  0.333  0.750  0.092-   2 2.75  18 2.75  20 2.79  28 2.79  21 2.79  29 2.79  53 2.79  61 2.79
                            27 2.79  30 2.80  57 2.81  22 2.87
  27  0.169  0.750  0.183-   3 2.74  19 2.74  30 2.78  62 2.79  26 2.79  29 2.80  54 2.80  21 2.80
                            22 2.80  24 2.81  32 2.83  31 2.85
  28  0.250  0.875  0.000-   4 2.75  20 2.75   2 2.79  26 2.79  25 2.79   1 2.79  33 2.79  57 2.79
                            29 2.81
  29  0.083  0.875  0.092-   5 2.75  21 2.75   1 2.79  25 2.79   2 2.79  26 2.79  34 2.79  58 2.79
                            27 2.80   3 2.80  62 2.80  28 2.81
  30  0.418  0.875  0.183-  22 2.77   6 2.77  27 2.78   3 2.78  35 2.78  59 2.79   2 2.80  26 2.80
                            61 2.80  39 2.83  63 2.83  32 2.85
  31  0.001  0.751  0.277-   7 2.73  23 2.74  24 2.76  56 2.77  64 2.78  32 2.78  62 2.83  54 2.83
                            27 2.85
  32  0.250  0.875  0.277-  24 2.74   8 2.74  31 2.78   7 2.78  39 2.79  63 2.79   3 2.83  27 2.83
                            30 2.85
  33  0.500  0.000  0.000-  41 2.75  57 2.75  37 2.79  61 2.79  28 2.79  36 2.79  60 2.79   4 2.79
                             2 2.81
  34  0.833  0.000  0.092-  42 2.75  58 2.75  36 2.79  60 2.79  29 2.79   5 2.79  37 2.79  61 2.79
                            38 2.79  62 2.80   1 2.81  35 2.81
  35  0.667  1.000  0.184-  59 2.74  43 2.75  30 2.78   6 2.79  38 2.80  62 2.80  61 2.80  37 2.80
                            40 2.81  34 2.81  64 2.82  39 2.85
  36  0.750  0.125  0.000-  44 2.75  60 2.75  34 2.79  42 2.79  41 2.79   9 2.79  33 2.79   1 2.79
                            37 2.81
  37  0.583  0.125  0.092-  45 2.75  61 2.75  33 2.79  41 2.79  10 2.79  42 2.79   2 2.79  34 2.79
                            35 2.80  36 2.81  43 2.81   6 2.86
  38  0.918  0.125  0.183-  62 2.75  46 2.75  11 2.78  34 2.79  35 2.80  42 2.80   3 2.80   5 2.80
                            43 2.81  40 2.82  15 2.82   7 2.83
  39  0.500  0.998  0.277-  63 2.71  47 2.76  32 2.79  64 2.79   6 2.80  40 2.82   8 2.82  30 2.83
                            35 2.85
  40  0.753  0.124  0.276-  64 2.74  48 2.76  15 2.77   7 2.77  43 2.81  35 2.81  39 2.82  47 2.82
                            38 2.82
  41  0.500  0.250  0.000-  33 2.75  49 2.75  45 2.79  37 2.79  12 2.79  44 2.79   4 2.79  36 2.79
                            10 2.81
  42  0.833  0.250  0.092-  34 2.75  50 2.75  46 2.78  36 2.79  44 2.79   5 2.79  45 2.79  13 2.79
                            37 2.79  38 2.80   9 2.81  43 2.84
  43  0.665  0.250  0.185-  35 2.75  51 2.75   6 2.75  48 2.79  14 2.79  40 2.81  38 2.81  46 2.81
                            37 2.81  45 2.81  42 2.84  47 2.87
  44  0.750  0.375  0.000-  36 2.75  52 2.75  50 2.79  42 2.79  17 2.79  49 2.79   9 2.79  41 2.79
                            45 2.81
  45  0.583  0.375  0.092-  37 2.75  53 2.75  49 2.79  41 2.79  42 2.79  10 2.79  50 2.79  18 2.79
                            44 2.81  51 2.81  14 2.81  43 2.81
  46  0.918  0.375  0.182-  38 2.75  54 2.75  48 2.78  42 2.78  50 2.78  13 2.78  11 2.79  19 2.79
                            51 2.81  43 2.81  23 2.85  15 2.85
  47  0.500  0.249  0.280-  65 2.01  55 2.76  39 2.76   6 2.81  40 2.82   8 2.82  16 2.86  48 2.87
                            43 2.87  14 2.90
  48  0.758  0.375  0.275-  23 2.73  15 2.73  56 2.76  40 2.76  46 2.78  43 2.79  51 2.79  55 2.87
                            47 2.87
  49  0.500  0.500  0.000-  41 2.75  57 2.75  53 2.79  45 2.79  20 2.79  52 2.79  12 2.79  44 2.79
                            18 2.81
  50  0.833  0.500  0.092-  42 2.75  58 2.75  46 2.78  52 2.79  44 2.79  13 2.79  21 2.79  53 2.79
                            45 2.79  54 2.80  17 2.81  51 2.84
  51  0.666  0.500  0.184-  59 2.75  43 2.75  22 2.75  48 2.79  14 2.79  53 2.81  56 2.81  54 2.81
                            46 2.81  45 2.81  50 2.84  55 2.88
  52  0.750  0.625  0.000-  44 2.75  60 2.75  58 2.79  50 2.79  25 2.79  57 2.79  17 2.79  49 2.79
                            53 2.81
  53  0.583  0.625  0.092-  45 2.75  61 2.75  57 2.79  49 2.79  50 2.79  18 2.79  58 2.79  26 2.79
                            59 2.80  52 2.81  51 2.81  22 2.86
  54  0.918  0.625  0.183-  62 2.75  46 2.75  19 2.78  58 2.79  59 2.79  50 2.80  27 2.80  21 2.80
                            51 2.81  56 2.82  23 2.82  31 2.83
  55  0.500  0.501  0.280-  66 2.01  47 2.76  63 2.77  22 2.81  24 2.82  56 2.82  16 2.86  48 2.87
                            51 2.88  14 2.90
  56  0.753  0.626  0.276-  64 2.74  48 2.76  23 2.77  31 2.77  59 2.81  51 2.81  63 2.82  55 2.82
                            54 2.82
  57  0.500  0.750  0.000-  33 2.75  49 2.75  53 2.79  61 2.79  52 2.79  20 2.79  60 2.79  28 2.79
                            26 2.81
  58  0.833  0.750  0.092-  34 2.75  50 2.75  52 2.79  60 2.79  21 2.79  53 2.79  29 2.79  61 2.79
                            54 2.79  62 2.80  25 2.81  59 2.81
  59  0.667  0.750  0.184-  35 2.74  51 2.75  30 2.79  22 2.79  54 2.79  62 2.80  61 2.80  53 2.80
                            58 2.81  56 2.81  64 2.82  63 2.85
  60  0.750  0.875  0.000-  36 2.75  52 2.75  34 2.79  58 2.79  25 2.79  33 2.79  57 2.79   1 2.79
                            61 2.81
  61  0.583  0.875  0.092-  37 2.75  53 2.75  33 2.79  57 2.79  26 2.79   2 2.79  34 2.79  58 2.79
                            30 2.80  59 2.80  35 2.80  60 2.81
  62  0.918  0.875  0.183-  54 2.75  38 2.75   3 2.79  27 2.79  59 2.80  35 2.80  58 2.80  34 2.80
                            29 2.80   7 2.82  31 2.83  64 2.84
  63  0.501  0.752  0.277-  39 2.71  55 2.77  32 2.79  64 2.79  22 2.79  56 2.82  24 2.83  30 2.83
                            59 2.85
  64  0.752  0.875  0.277-  56 2.74  40 2.74   7 2.78  31 2.78  63 2.79  39 2.79  35 2.82  59 2.82
                            62 2.84
  65  0.501  0.313  0.355-  66 1.37  47 2.01
  66  0.501  0.437  0.355-  65 1.37  55 2.01
 

IMPORTANT INFORMATION: All symmetrisations will be switched off!
NOSYMM: (Re-)initialisation of all symmetry stuff for point group C_1.

 
 
 KPOINTS: K-Spacing Value to Generate K-Mesh: 0.03

Automatic generation of k-mesh.
Space group operators:
 irot       det(A)        alpha          n_x          n_y          n_z        tau_x        tau_y        tau_z
    1     1.000000     0.000001     1.000000     0.000000     0.000000     0.000000     0.000000     0.000000
 
 Subroutine IBZKPT returns following result:
 ===========================================
 
 Found      5 irreducible k-points:
 
 Following reciprocal coordinates:
            Coordinates               Weight
  0.000000  0.000000  0.000000      1.000000
  0.333333  0.000000  0.000000      2.000000
  0.000000  0.333333  0.000000      2.000000
  0.333333  0.333333  0.000000      2.000000
 -0.333333  0.333333  0.000000      2.000000
 
 Following cartesian coordinates:
            Coordinates               Weight
  0.000000  0.000000  0.000000      1.000000
  0.034301  0.000000  0.000000      2.000000
  0.000000  0.030312  0.000000      2.000000
  0.034301  0.030312  0.000000      2.000000
 -0.034301  0.030312  0.000000      2.000000
 


--------------------------------------------------------------------------------------------------------




 Dimension of arrays:
   k-points           NKPTS =      5   k-points in BZ     NKDIM =      5   number of bands    NBANDS=    392
   number of dos      NEDOS =    301   number of ions     NIONS =     66
   non local maximal  LDIM  =      6   non local SUM 2l+1 LMDIM =     18
   total plane-waves  NPLWV = 420000
   max r-space proj   IRMAX =   2120   max aug-charges    IRDMAX=   9720
   dimension x,y,z NGX =    50 NGY =   60 NGZ =  140
   dimension x,y,z NGXF=   100 NGYF=  120 NGZF=  280
   support grid    NGXF=   100 NGYF=  120 NGZF=  280
   ions per type =              64   2
   NGX,Y,Z   is equivalent  to a cutoff of   8.55,  9.07,  9.31 a.u.
   NGXF,Y,Z  is equivalent  to a cutoff of  17.11, 18.14, 18.62 a.u.

 SYSTEM =  Pt111 O2 adsorption system              
 POSCAR =  Pt  O                                   

 Startparameter for this run:
   NWRITE =      2    write-flag & timer
   PREC   = normal    normal or accurate (medium, high low for compatibility)
   ISTART =      0    job   : 0-new  1-cont  2-samecut
   ICHARG =      1    charge: 1-file 2-atom 10-const
   ISPIN  =      1    spin polarized calculation?
   LNONCOLLINEAR =      F non collinear calculations
   LSORBIT =      F    spin-orbit coupling
   INIWAV =      1    electr: 0-lowe 1-rand  2-diag
   LASPH  =      F    aspherical Exc in radial PAW
   METAGGA=      F    non-selfconsistent MetaGGA calc.

 Electronic Relaxation 1
   ENCUT  =  450.0 eV  33.07 Ry    5.75 a.u.  16.81 19.02 43.24*2*pi/ulx,y,z
   ENINI  =  450.0     initial cutoff
   ENAUG  =  605.4 eV  augmentation charge cutoff
   NELM   =     60;   NELMIN=  2; NELMDL= -5     # of ELM steps 
   EDIFF  = 0.1E-05   stopping-criterion for ELM
   LREAL  =      T    real-space projection
   NLSPLINE    = F    spline interpolate recip. space projectors
   LCOMPAT=      F    compatible to vasp.4.4
   GGA_COMPAT  = T    GGA compatible to vasp.4.4-vasp.4.6
   LMAXPAW     = -100 max onsite density
   LMAXMIX     =    2 max onsite mixed and CHGCAR
   VOSKOWN=      0    Vosko Wilk Nusair interpolation
   ROPT   =   -0.00050  -0.00050
 Ionic relaxation
   EDIFFG = -.2E-01   stopping-criterion for IOM
   NSW    =    200    number of steps for IOM
   NBLOCK =      1;   KBLOCK =    200    inner block; outer block 
   IBRION =      1    ionic relax: 0-MD 1-quasi-New 2-CG
   NFREE  =      0    steps in history (QN), initial steepest desc. (CG)
   ISIF   =      2    stress and relaxation
   IWAVPR =     11    prediction:  0-non 1-charg 2-wave 3-comb
   ISYM   =      0    0-nonsym 1-usesym 2-fastsym
   LCORR  =      T    Harris-Foulkes like correction to forces

   POTIM  = 0.2000    time-step for ionic-motion
   TEIN   =    0.0    initial temperature
   TEBEG  =    0.0;   TEEND  =   0.0 temperature during run
   SMASS  =  -3.00    Nose mass-parameter (am)
   estimated Nose-frequenzy (Omega)   =  0.10E-29 period in steps =****** mass=  -0.216E-26a.u.
   SCALEE = 1.0000    scale energy and forces
   NPACO  =    256;   APACO  = 16.0  distance and # of slots for P.C.
   PSTRESS=    0.0 pullay stress

  Mass of Ions in am
   POMASS = 195.08 16.00
  Ionic Valenz
   ZVAL   =  10.00  6.00
  Atomic Wigner-Seitz radii
   RWIGS  =  -1.00 -1.00
  virtual crystal weights 
   VCA    =   1.00  1.00
   NELECT =     652.0000    total number of electrons
   NUPDOWN=      -1.0000    fix difference up-down

 DOS related values:
   EMIN   =  10.00;   EMAX   =-10.00  energy-range for DOS
   EFERMI =   0.00
   ISMEAR =     0;   SIGMA  =   0.10  broadening in eV -4-tet -1-fermi 0-gaus

 Electronic relaxation 2 (details)
   IALGO  =     68    algorithm
   LDIAG  =      T    sub-space diagonalisation (order eigenvalues)
   LSUBROT=      F    optimize rotation matrix (better conditioning)
   TURBO    =      0    0=normal 1=particle mesh
   IRESTART =      0    0=no restart 2=restart with 2 vectors
   NREBOOT  =      0    no. of reboots
   NMIN     =      0    reboot dimension
   EREF     =   0.00    reference energy to select bands
   IMIX   =      4    mixing-type and parameters
     AMIX     =   0.40;   BMIX     =  1.00
     AMIX_MAG =   1.60;   BMIX_MAG =  1.00
     AMIN     =   0.10
     WC   =   100.;   INIMIX=   1;  MIXPRE=   1;  MAXMIX= -45

 Intra band minimization:
   WEIMIN = 0.0010     energy-eigenvalue tresh-hold
   EBREAK =  0.64E-09  absolut break condition
   DEPER  =   0.30     relativ break condition  

   TIME   =   0.40     timestep for ELM

  volume/ion in A,a.u.               =      40.48       273.16
  Fermi-wavevector in a.u.,A,eV,Ry     =   1.023059  1.933300 14.240521  1.046649
  Thomas-Fermi vector in A             =   2.156771
 
 Write flags
   LWAVE        =      F    write WAVECAR
   LDOWNSAMPLE  =      F    k-point downsampling of WAVECAR
   LCHARG       =      F    write CHGCAR
   LVTOT        =      F    write LOCPOT, total local potential
   LVHAR        =      F    write LOCPOT, Hartree potential only
   LELF         =      F    write electronic localiz. function (ELF)
   LORBIT       =      0    0 simple, 1 ext, 2 COOP (PROOUT), +10 PAW based schemes


 Dipole corrections
   LMONO  =      F    monopole corrections only (constant potential shift)
   LDIPOL =      T    correct potential (dipole corrections)
   IDIPOL =      3    1-x, 2-y, 3-z, 4-all directions 
   EPSILON=  1.0000000 bulk dielectric constant

 Exchange correlation treatment:
   GGA     =    PE    GGA type
   LEXCH   =     8    internal setting for exchange type
   VOSKOWN=      0    Vosko Wilk Nusair interpolation
   LHFCALC =     F    Hartree Fock is set to
   LHFONE  =     F    Hartree Fock one center treatment
   AEXX    =    0.0000 exact exchange contribution

 Linear response parameters
   LEPSILON=     F    determine dielectric tensor
   LRPA    =     F    only Hartree local field effects (RPA)
   LNABLA  =     F    use nabla operator in PAW spheres
   LVEL    =     F    velocity operator in full k-point grid
   LINTERFAST=   F  fast interpolation
   KINTER  =     0    interpolate to denser k-point grid
   CSHIFT  =0.1000    complex shift for real part using Kramers Kronig
   OMEGAMAX=  -1.0    maximum frequency
   DEG_THRESHOLD= 0.2000000E-02 threshold for treating states as degnerate
   RTIME   =   -0.100 relaxation time in fs
  (WPLASMAI=    0.000 imaginary part of plasma frequency in eV, 0.658/RTIME)
   DFIELD  = 0.0000000 0.0000000 0.0000000 field for delta impulse in time
 
 Orbital magnetization related:
   ORBITALMAG=     F  switch on orbital magnetization
   LCHIMAG   =     F  perturbation theory with respect to B field
   DQ        =  0.001000  dq finite difference perturbation B field
   LLRAUG    =     F  two centre corrections for induced B field



--------------------------------------------------------------------------------------------------------


 quasi-Newton-method for relaxation of ions
   using selective dynamics as specified on POSCAR
   WARNING: If single coordinates had been selected the selection of coordinates
            is made according to the corresponding   d i r e c t   coordinates!
            Don't support selection of single cartesian coordinates -- sorry ...
  !
 charge density and potential will be updated during run
 non-spin polarized calculation
 RMM-DIIS sequential band-by-band and
  variant of blocked Davidson during initial phase
 perform sub-space diagonalisation
    before iterative eigenvector-optimisation
 modified Broyden-mixing scheme, WC =      100.0
 initial mixing is a Kerker type mixing with AMIX =  0.4000 and BMIX =      1.0000
 Hartree-type preconditioning will be used
 using additional bands           66
 real space projection scheme for non local part
 use partial core corrections
 calculate Harris-corrections to forces 
   (improved forces if not selfconsistent)
 use gradient corrections 
 use of overlap-Matrix (Vanderbilt PP)
 Gauss-broadening in eV      SIGMA  =   0.10


--------------------------------------------------------------------------------------------------------


  energy-cutoff  :      450.00
  volume of cell :     2671.60
      direct lattice vectors                 reciprocal lattice vectors
     9.717792020  0.000000000  0.000000000     0.102904034  0.000000000  0.000000000
     0.000000000 10.996716886  0.000000000     0.000000000  0.090936232  0.000000000
     0.000000000  0.000000000 25.000000000     0.000000000  0.000000000  0.040000000

  length of vectors
     9.717792020 10.996716886 25.000000000     0.102904034  0.090936232  0.040000000


 
 k-points in units of 2pi/SCALE and weight: K-Spacing Value to Generate K-Mesh: 0.03
   0.00000000  0.00000000  0.00000000       0.111
   0.03430134  0.00000000  0.00000000       0.222
   0.00000000  0.03031208  0.00000000       0.222
   0.03430134  0.03031208  0.00000000       0.222
  -0.03430134  0.03031208  0.00000000       0.222
 
 k-points in reciprocal lattice and weights: K-Spacing Value to Generate K-Mesh: 0.03
   0.00000000  0.00000000  0.00000000       0.111
   0.33333333  0.00000000  0.00000000       0.222
   0.00000000  0.33333333  0.00000000       0.222
   0.33333333  0.33333333  0.00000000       0.222
  -0.33333333  0.33333333  0.00000000       0.222
 
 position of ions in fractional coordinates (direct lattice) 
   0.00000000  0.00000000  0.00000000
   0.33333333  0.00000000  0.09162022
   0.16864356  0.99972511  0.18332949
   0.25000000  0.12500000  0.00000000
   0.08333333  0.12500000  0.09162022
   0.41868564  0.12696841  0.18629982
   0.00069080  0.99940680  0.27690622
   0.24733161  0.12431036  0.27665066
   0.00000000  0.25000000  0.00000000
   0.33333333  0.25000000  0.09162022
   0.16677194  0.24895547  0.18285701
   0.25000000  0.37500000  0.00000000
   0.08333333  0.37500000  0.09162022
   0.41566540  0.37506591  0.18342358
   0.99988334  0.24864613  0.27698513
   0.24260341  0.37510966  0.27407601
   0.00000000  0.50000000  0.00000000
   0.33333333  0.50000000  0.09162022
   0.16687166  0.50087233  0.18282023
   0.25000000  0.62500000  0.00000000
   0.08333333  0.62500000  0.09162022
   0.41881993  0.62333677  0.18635354
   0.99993304  0.50125069  0.27691557
   0.24726099  0.62576920  0.27658294
   0.00000000  0.75000000  0.00000000
   0.33333333  0.75000000  0.09162022
   0.16875891  0.75032791  0.18329143
   0.25000000  0.87500000  0.00000000
   0.08333333  0.87500000  0.09162022
   0.41793212  0.87504881  0.18335799
   0.00090688  0.75075410  0.27696389
   0.24994267  0.87498267  0.27697634
   0.50000000  0.00000000  0.00000000
   0.83333333  0.00000000  0.09162022
   0.66725284  0.99971505  0.18373818
   0.75000000  0.12500000  0.00000000
   0.58333333  0.12500000  0.09162022
   0.91768787  0.12476430  0.18329920
   0.50049372  0.99813010  0.27730949
   0.75283328  0.12386681  0.27618547
   0.50000000  0.25000000  0.00000000
   0.83333333  0.25000000  0.09162022
   0.66536142  0.24986708  0.18452962
   0.75000000  0.37500000  0.00000000
   0.58333333  0.37500000  0.09162022
   0.91783676  0.37496362  0.18246845
   0.50026455  0.24937009  0.27991601
   0.75831518  0.37508199  0.27455884
   0.50000000  0.50000000  0.00000000
   0.83333333  0.50000000  0.09162022
   0.66550461  0.50013702  0.18439375
   0.75000000  0.62500000  0.00000000
   0.58333333  0.62500000  0.09162022
   0.91785616  0.62530318  0.18332429
   0.50020985  0.50054971  0.27988538
   0.75296722  0.62614987  0.27613586
   0.50000000  0.75000000  0.00000000
   0.83333333  0.75000000  0.09162022
   0.66743109  0.75028921  0.18367898
   0.75000000  0.87500000  0.00000000
   0.58333333  0.87500000  0.09162022
   0.91825105  0.87499001  0.18339874
   0.50070237  0.75201403  0.27735900
   0.75199987  0.87499987  0.27673852
   0.50097331  0.31250465  0.35547855
   0.50096273  0.43705343  0.35549023
 
 position of ions in cartesian coordinates  (Angst):
   0.00000000  0.00000000  0.00000000
   3.23926402  0.00000000  2.29050552
   1.63884307 10.99369403  4.58323724
   2.42944800  1.37458961  0.00000000
   0.80981602  1.37458961  2.29050552
   4.06870001  1.39623569  4.65749538
   0.00671304 10.99019358  6.92265538
   2.40351716  1.36700581  6.91626648
   0.00000000  2.74917922  0.00000000
   3.23926402  2.74917922  2.29050552
   1.62065503  2.73769283  4.57142537
   2.42944800  4.12376883  0.00000000
   0.80981602  4.12376883  2.29050552
   4.03934994  4.12449365  4.58558945
   9.71665830  2.73429111  6.92462830
   2.35756949  4.12497478  6.85190016
   0.00000000  5.49835844  0.00000000
   3.23926402  5.49835844  2.29050552
   1.62162404  5.50795123  4.57050582
   2.42944800  6.87294805  0.00000000
   0.80981602  6.87294805  2.29050552
   4.07000500  6.85465802  4.65883852
   9.71714132  5.51211196  6.92288916
   2.40283084  6.88140673  6.91457347
   0.00000000  8.24753766  0.00000000
   3.23926402  8.24753766  2.29050552
   1.63996396  8.25114365  4.58228565
   2.42944800  9.62212728  0.00000000
   0.80981602  9.62212728  2.29050552
   4.06137742  9.62266398  4.58394963
   0.00881287  8.25583029  6.92409726
   2.42889085  9.62193673  6.92440852
   4.85889601  0.00000000  0.00000000
   8.09816003  0.00000000  2.29050552
   6.48422432 10.99358332  4.59345441
   7.28834401  1.37458961  0.00000000
   5.66871203  1.37458961  2.29050552
   8.91789990  1.37199767  4.58248011
   4.86369383 10.97615415  6.93273722
   7.31587721  1.36212823  6.90463676
   4.85889601  2.74917922  0.00000000
   8.09816003  2.74917922  2.29050552
   6.46584390  2.74771753  4.61324054
   7.28834401  4.12376883  0.00000000
   5.66871203  4.12376883  2.29050552
   8.91934673  4.12336882  4.56171122
   4.86146686  2.74225229  6.99790017
   7.36914919  4.12467044  6.86397098
   4.85889601  5.49835844  0.00000000
   8.09816003  5.49835844  2.29050552
   6.46723538  5.49986520  4.60984383
   7.28834401  6.87294805  0.00000000
   5.66871203  6.87294805  2.29050552
   8.91953526  6.87628205  4.58310733
   4.86093530  5.50440342  6.99713454
   7.31717883  6.88559282  6.90339641
   4.85889601  8.24753766  0.00000000
   8.09816003  8.24753766  2.29050552
   6.48595652  8.25071805  4.59197453
   7.28834401  9.62212728  0.00000000
   5.66871203  9.62212728  2.29050552
   8.92337268  9.62201741  4.58496848
   4.86572146  8.26968533  6.93397491
   7.30777838  9.62212586  6.91846293
   4.86835440  3.43652521  8.88696368
   4.86825162  4.80615284  8.88725570
 


--------------------------------------------------------------------------------------------------------


 k-point  1 :   0.0000 0.0000 0.0000  plane waves:   57873
 k-point  2 :   0.3333 0.0000 0.0000  plane waves:   57886
 k-point  3 :   0.0000 0.3333 0.0000  plane waves:   57942
 k-point  4 :   0.3333 0.3333 0.0000  plane waves:   57931
 k-point  5 :  -0.3333 0.3333 0.0000  plane waves:   57931

 maximum and minimum number of plane-waves per node :      7285     7205

 maximum number of plane-waves:     57942
 maximum index in each direction: 
   IXMAX=   17   IYMAX=   19   IZMAX=   43
   IXMIN=  -17   IYMIN=  -19   IZMIN=  -43


 real space projection operators:
  total allocation   :      18227.30 KBytes
  max/ min on nodes  :       2559.77       2150.23


 parallel 3D FFT for wavefunctions:
    minimum data exchange during FFTs selected (reduces bandwidth)
 parallel 3D FFT for charge:
    minimum data exchange during FFTs selected (reduces bandwidth)


 total amount of memory used by VASP MPI-rank0    74700. kBytes
=======================================================================

   base      :      30000. kBytes
   nonlr-proj:       5509. kBytes
   fftplans  :       3935. kBytes
   grid      :       6141. kBytes
   one-center:        139. kBytes
   wavefun   :      28976. kBytes
 
     INWAV:  cpu time    0.0000: real time    0.0001
 Broyden mixing: mesh for mixing (old mesh)
   NGX = 33   NGY = 39   NGZ = 87
  (NGX  =100   NGY  =120   NGZ  =280)
  gives a total of 111969 points

 initial charge density was supplied:
 charge density of overlapping atoms calculated
 number of electron     652.0000000 magnetization 
 keeping initial charge density in first step


--------------------------------------------------------------------------------------------------------


 Maximum index for non-local projection operator          406
 Maximum index for augmentation-charges          561 (set IRDMAX)


--------------------------------------------------------------------------------------------------------


 First call to EWALD:  gamma=   0.128
 Maximum number of real-space cells 4x 3x 2
 Maximum number of reciprocal cells 2x 2x 5

    FEWALD:  cpu time    0.0021: real time    0.0043


--------------------------------------- Iteration      1(   1)  ---------------------------------------


    POTLOK:  cpu time    0.0319: real time    0.0438
    SETDIJ:  cpu time    0.0040: real time    0.0041
     EDDAV:  cpu time    8.6391: real time    8.6581
       DOS:  cpu time    0.0007: real time    0.0008
    --------------------------------------------
      LOOP:  cpu time    8.6758: real time    8.7068

 eigenvalue-minimisations  :  3920
 total energy-change (2. order) : 0.4309845E+04  (-0.2689603E+05)
 number of electron     652.0000000 magnetization 
 augmentation part      652.0000000 magnetization 

 DIPCOR: dipole corrections for dipol
 direction  3 min pos   172,
 dipolmoment           0.000000      0.000000     -0.000275 electrons x Angstroem
 Tr[quadrupol]    -12326.432226

 energy correction for charged system         0.000000 eV
 dipol+quadrupol energy correction           -0.000000 eV
 added-field ion interaction          0.009531 eV  (added to PSCEN)


 Free energy of the ion-electron system (eV)
  ---------------------------------------------------
  alpha Z        PSCENC =      1496.04112163
  Ewald energy   TEWEN  =    246055.53486954
  -Hartree energ DENC   =   -296111.79658252
  -exchange      EXHF   =         0.00000000
  -V(xc)+E(xc)   XCENC  =       274.24464498
  PAW double counting   =     45245.00522118   -43438.47517393
  entropy T*S    EENTRO =        -0.15903415
  eigenvalues    EBANDS =      3261.57249652
  atomic energy  EATOM  =     47527.87699037
  Solvation  Ediel_sol  =         0.00000000
  ---------------------------------------------------
  free energy    TOTEN  =      4309.84455363 eV

  energy without entropy =     4310.00358778  energy(sigma->0) =     4309.92407070


--------------------------------------------------------------------------------------------------------




--------------------------------------- Iteration      1(   2)  ---------------------------------------


     EDDAV:  cpu time    9.8071: real time    9.8240
       DOS:  cpu time    0.0007: real time    0.0007
    --------------------------------------------
      LOOP:  cpu time    9.8079: real time    9.8247

 eigenvalue-minimisations  :  4632
 total energy-change (2. order) :-0.4374433E+04  (-0.4040874E+04)
 number of electron     652.0000000 magnetization 
 augmentation part      652.0000000 magnetization 

 DIPCOR: dipole corrections for dipol
 direction  3 min pos   172,
 dipolmoment           0.000000      0.000000     -0.000275 electrons x Angstroem
 Tr[quadrupol]    -12326.432226

 energy correction for charged system         0.000000 eV
 dipol+quadrupol energy correction           -0.000000 eV
 added-field ion interaction          0.009531 eV  (added to PSCEN)


 Free energy of the ion-electron system (eV)
  ---------------------------------------------------
  alpha Z        PSCENC =      1496.04112163
  Ewald energy   TEWEN  =    246055.53486954
  -Hartree energ DENC   =   -296111.79658252
  -exchange      EXHF   =         0.00000000
  -V(xc)+E(xc)   XCENC  =       274.24464498
  PAW double counting   =     45245.00522118   -43438.47517393
  entropy T*S    EENTRO =        -0.25708009
  eigenvalues    EBANDS =     -1112.76263603
  atomic energy  EATOM  =     47527.87699037
  Solvation  Ediel_sol  =         0.00000000
  ---------------------------------------------------
  free energy    TOTEN  =       -64.58862486 eV

  energy without entropy =      -64.33154477  energy(sigma->0) =      -64.46008482


--------------------------------------------------------------------------------------------------------




--------------------------------------- Iteration      1(   3)  ---------------------------------------


     EDDAV:  cpu time    9.7549: real time    9.7721
       DOS:  cpu time    0.0008: real time    0.0008
    --------------------------------------------
      LOOP:  cpu time    9.7558: real time    9.7729

 eigenvalue-minimisations  :  4624
 total energy-change (2. order) :-0.3284416E+03  (-0.2954312E+03)
 number of electron     652.0000000 magnetization 
 augmentation part      652.0000000 magnetization 

 DIPCOR: dipole corrections for dipol
 direction  3 min pos   172,
 dipolmoment           0.000000      0.000000     -0.000275 electrons x Angstroem
 Tr[quadrupol]    -12326.432226

 energy correction for charged system         0.000000 eV
 dipol+quadrupol energy correction           -0.000000 eV
 added-field ion interaction          0.009531 eV  (added to PSCEN)


 Free energy of the ion-electron system (eV)
  ---------------------------------------------------
  alpha Z        PSCENC =      1496.04112163
  Ewald energy   TEWEN  =    246055.53486954
  -Hartree energ DENC   =   -296111.79658252
  -exchange      EXHF   =         0.00000000
  -V(xc)+E(xc)   XCENC  =       274.24464498
  PAW double counting   =     45245.00522118   -43438.47517393
  entropy T*S    EENTRO =        -0.52573091
  eigenvalues    EBANDS =     -1440.93563473
  atomic energy  EATOM  =     47527.87699037
  Solvation  Ediel_sol  =         0.00000000
  ---------------------------------------------------
  free energy    TOTEN  =      -393.03027439 eV

  energy without entropy =     -392.50454347  energy(sigma->0) =     -392.76740893


--------------------------------------------------------------------------------------------------------




--------------------------------------- Iteration      1(   4)  ---------------------------------------


     EDDAV:  cpu time   10.4941: real time   10.5120
       DOS:  cpu time    0.0008: real time    0.0008
    --------------------------------------------
      LOOP:  cpu time   10.4949: real time   10.5128

 eigenvalue-minimisations  :  5064
 total energy-change (2. order) :-0.1595707E+02  (-0.1503806E+02)
 number of electron     652.0000000 magnetization 
 augmentation part      652.0000000 magnetization 

 DIPCOR: dipole corrections for dipol
 direction  3 min pos   172,
 dipolmoment           0.000000      0.000000     -0.000275 electrons x Angstroem
 Tr[quadrupol]    -12326.432226

 energy correction for charged system         0.000000 eV
 dipol+quadrupol energy correction           -0.000000 eV
 added-field ion interaction          0.009531 eV  (added to PSCEN)


 Free energy of the ion-electron system (eV)
  ---------------------------------------------------
  alpha Z        PSCENC =      1496.04112163
  Ewald energy   TEWEN  =    246055.53486954
  -Hartree energ DENC   =   -296111.79658252
  -exchange      EXHF   =         0.00000000
  -V(xc)+E(xc)   XCENC  =       274.24464498
  PAW double counting   =     45245.00522118   -43438.47517393
  entropy T*S    EENTRO =        -0.56732701
  eigenvalues    EBANDS =     -1456.85110895
  atomic energy  EATOM  =     47527.87699037
  Solvation  Ediel_sol  =         0.00000000
  ---------------------------------------------------
  free energy    TOTEN  =      -408.98734470 eV

  energy without entropy =     -408.42001769  energy(sigma->0) =     -408.70368119


--------------------------------------------------------------------------------------------------------




--------------------------------------- Iteration      1(   5)  ---------------------------------------


     EDDAV:  cpu time   11.0010: real time   11.0294
       DOS:  cpu time    0.0009: real time    0.0009
    CHARGE:  cpu time    0.1449: real time    0.1452
    MIXING:  cpu time    0.0016: real time    0.0018
    --------------------------------------------
      LOOP:  cpu time   11.1484: real time   11.1773

 eigenvalue-minimisations  :  5360
 total energy-change (2. order) :-0.4393655E+00  (-0.4361762E+00)
 number of electron     652.0000414 magnetization 
 augmentation part      187.3023104 magnetization 

 DIPCOR: dipole corrections for dipol
 direction  3 min pos   172,
 dipolmoment           0.000000      0.000000     -0.000275 electrons x Angstroem
 Tr[quadrupol]    -12326.432226

 energy correction for charged system         0.000000 eV
 dipol+quadrupol energy correction           -0.000000 eV
 added-field ion interaction          0.009531 eV  (added to PSCEN)


 Broyden mixing:
  rms(total) = 0.85747E+01    rms(broyden)= 0.85742E+01
  rms(prec ) = 0.86766E+01
  weight for this iteration     100.00

 Free energy of the ion-electron system (eV)
  ---------------------------------------------------
  alpha Z        PSCENC =      1496.04112163
  Ewald energy   TEWEN  =    246055.53486954
  -Hartree energ DENC   =   -296111.79658252
  -exchange      EXHF   =         0.00000000
  -V(xc)+E(xc)   XCENC  =       274.24464498
  PAW double counting   =     45245.00522118   -43438.47517393
  entropy T*S    EENTRO =        -0.56830210
  eigenvalues    EBANDS =     -1457.28949939
  atomic energy  EATOM  =     47527.87699037
  Solvation  Ediel_sol  =         0.00000000
  ---------------------------------------------------
  free energy    TOTEN  =      -409.42671024 eV

  energy without entropy =     -408.85840813  energy(sigma->0) =     -409.14255919


--------------------------------------------------------------------------------------------------------




--------------------------------------- Iteration      1(   6)  ---------------------------------------


    POTLOK:  cpu time    0.0304: real time    0.0401
    SETDIJ:  cpu time    0.0037: real time    0.0037
    EDDIAG:  cpu time    1.2480: real time    1.2496
  RMM-DIIS:  cpu time    3.5275: real time    3.5324
    ORTHCH:  cpu time    0.5625: real time    0.5662
       DOS:  cpu time    0.0008: real time    0.0008
    CHARGE:  cpu time    0.1422: real time    0.1424
    MIXING:  cpu time    0.0013: real time    0.0013
    --------------------------------------------
      LOOP:  cpu time    5.5164: real time    5.5366

 eigenvalue-minimisations  :  3937
 total energy-change (2. order) : 0.1150898E+02  (-0.7440551E+01)
 number of electron     652.0000423 magnetization 
 augmentation part      198.2645906 magnetization 

 DIPCOR: dipole corrections for dipol
 direction  3 min pos   188,
 dipolmoment           0.000000      0.000000      0.444921 electrons x Angstroem
 Tr[quadrupol]    -12315.761434

 energy correction for charged system         0.000000 eV
 dipol+quadrupol energy correction           -0.006704 eV
 added-field ion interaction         12.665543 eV  (added to PSCEN)


 Broyden mixing:
  rms(total) = 0.64906E+01    rms(broyden)= 0.64898E+01
  rms(prec ) = 0.70228E+01
  weight for this iteration     100.00

 eigenvalues of (default mixing * dielectric matrix)
  average eigenvalue GAMMA=   1.1042
  1.1042

 Free energy of the ion-electron system (eV)
  ---------------------------------------------------
  alpha Z        PSCENC =      1508.69042909
  Ewald energy   TEWEN  =    246055.53486954
  -Hartree energ DENC   =   -295323.69534743
  -exchange      EXHF   =         0.00000000
  -V(xc)+E(xc)   XCENC  =       259.15074411
  PAW double counting   =     50033.65089463   -48322.91332614
  entropy T*S    EENTRO =        -0.52025646
  eigenvalues    EBANDS =     -2135.69272839
  atomic energy  EATOM  =     47527.87699037
  Solvation  Ediel_sol  =         0.00000000
  ---------------------------------------------------
  free energy    TOTEN  =      -397.91773068 eV

  energy without entropy =     -397.39747422  energy(sigma->0) =     -397.65760245


--------------------------------------------------------------------------------------------------------




--------------------------------------- Iteration      1(   7)  ---------------------------------------


    POTLOK:  cpu time    0.0294: real time    0.0356
    SETDIJ:  cpu time    0.0040: real time    0.0040
    EDDIAG:  cpu time    1.2356: real time    1.2381
  RMM-DIIS:  cpu time    3.8967: real time    3.9011
    ORTHCH:  cpu time    0.5673: real time    0.5676
       DOS:  cpu time    0.0008: real time    0.0008
    CHARGE:  cpu time    0.1445: real time    0.1447
    MIXING:  cpu time    0.0009: real time    0.0009
    --------------------------------------------
      LOOP:  cpu time    5.8791: real time    5.8927

 eigenvalue-minimisations  :  4258
 total energy-change (2. order) :-0.2025925E+03  (-0.3254316E+02)
 number of electron     652.0000454 magnetization 
 augmentation part      192.0283498 magnetization 

 DIPCOR: dipole corrections for dipol
 direction  3 min pos   187,
 dipolmoment           0.000000      0.000000     -4.781828 electrons x Angstroem
 Tr[quadrupol]    -12331.775302

 energy correction for charged system         0.000000 eV
 dipol+quadrupol energy correction           -0.774417 eV
 added-field ion interaction       -117.268479 eV  (added to PSCEN)


 Broyden mixing:
  rms(total) = 0.10090E+02    rms(broyden)= 0.10089E+02
  rms(prec ) = 0.13646E+02
  weight for this iteration     100.00

 eigenvalues of (default mixing * dielectric matrix)
  average eigenvalue GAMMA=   0.8998
  1.6042  0.1955

 Free energy of the ion-electron system (eV)
  ---------------------------------------------------
  alpha Z        PSCENC =      1377.98869329
  Ewald energy   TEWEN  =    246055.53486954
  -Hartree energ DENC   =   -295870.46196718
  -exchange      EXHF   =         0.00000000
  -V(xc)+E(xc)   XCENC  =       253.26005040
  PAW double counting   =     52856.48347488   -51175.34460538
  entropy T*S    EENTRO =        -0.46233648
  eigenvalues    EBANDS =     -1625.38541744
  atomic energy  EATOM  =     47527.87699037
  Solvation  Ediel_sol  =         0.00000000
  ---------------------------------------------------
  free energy    TOTEN  =      -600.51024800 eV

  energy without entropy =     -600.04791152  energy(sigma->0) =     -600.27907976


--------------------------------------------------------------------------------------------------------




--------------------------------------- Iteration      1(   8)  ---------------------------------------


    POTLOK:  cpu time    0.0287: real time    0.0297
    SETDIJ:  cpu time    0.0036: real time    0.0037
    EDDIAG:  cpu time    1.2349: real time    1.2373
  RMM-DIIS:  cpu time    3.5008: real time    3.5072
    ORTHCH:  cpu time    0.5619: real time    0.5628
       DOS:  cpu time    0.0008: real time    0.0008
    CHARGE:  cpu time    0.1441: real time    0.1443
    MIXING:  cpu time    0.0010: real time    0.0010
    --------------------------------------------
      LOOP:  cpu time    5.4758: real time    5.4868

 eigenvalue-minimisations  :  3928
 total energy-change (2. order) : 0.7557230E+02  (-0.1415488E+02)
 number of electron     652.0000492 magnetization 
 augmentation part      195.3147476 magnetization 

 DIPCOR: dipole corrections for dipol
 direction  3 min pos   183,
 dipolmoment           0.000000      0.000000      2.087112 electrons x Angstroem
 Tr[quadrupol]    -12341.076327

 energy correction for charged system         0.000000 eV
 dipol+quadrupol energy correction           -0.147529 eV
 added-field ion interaction         18.264623 eV  (added to PSCEN)


 Broyden mixing:
  rms(total) = 0.89509E+01    rms(broyden)= 0.89508E+01
  rms(prec ) = 0.11195E+02
  weight for this iteration     100.00

 eigenvalues of (default mixing * dielectric matrix)
  average eigenvalue GAMMA=   0.8627
  2.1694  0.2093  0.2093

 Free energy of the ion-electron system (eV)
  ---------------------------------------------------
  alpha Z        PSCENC =      1514.14868386
  Ewald energy   TEWEN  =    246055.53486954
  -Hartree energ DENC   =   -295886.14483629
  -exchange      EXHF   =         0.00000000
  -V(xc)+E(xc)   XCENC  =       249.92890481
  PAW double counting   =     54832.21384392   -53178.28577449
  entropy T*S    EENTRO =        -0.23527265
  eigenvalues    EBANDS =     -1639.97535742
  atomic energy  EATOM  =     47527.87699037
  Solvation  Ediel_sol  =         0.00000000
  ---------------------------------------------------
  free energy    TOTEN  =      -524.93794834 eV

  energy without entropy =     -524.70267570  energy(sigma->0) =     -524.82031202


--------------------------------------------------------------------------------------------------------




--------------------------------------- Iteration      1(   9)  ---------------------------------------


    POTLOK:  cpu time    0.0297: real time    0.0312
    SETDIJ:  cpu time    0.0036: real time    0.0036
    EDDIAG:  cpu time    1.2397: real time    1.2420
  RMM-DIIS:  cpu time    3.4855: real time    3.4895
    ORTHCH:  cpu time    0.5625: real time    0.5627
       DOS:  cpu time    0.0009: real time    0.0009
    CHARGE:  cpu time    0.1443: real time    0.1445
    MIXING:  cpu time    0.0010: real time    0.0010
    --------------------------------------------
      LOOP:  cpu time    5.4672: real time    5.4754

 eigenvalue-minimisations  :  3932
 total energy-change (2. order) : 0.1058038E+03  (-0.8036881E+01)
 number of electron     652.0000471 magnetization 
 augmentation part      200.1487414 magnetization 

 DIPCOR: dipole corrections for dipol
 direction  3 min pos   185,
 dipolmoment           0.000000      0.000000     -0.818060 electrons x Angstroem
 Tr[quadrupol]    -12326.558655

 energy correction for charged system         0.000000 eV
 dipol+quadrupol energy correction           -0.022665 eV
 added-field ion interaction        -13.610448 eV  (added to PSCEN)


 Broyden mixing:
  rms(total) = 0.47042E+01    rms(broyden)= 0.47041E+01
  rms(prec ) = 0.62554E+01
  weight for this iteration     100.00

 eigenvalues of (default mixing * dielectric matrix)
  average eigenvalue GAMMA=   0.7852
  2.0787  0.4618  0.4618  0.1387

 Free energy of the ion-electron system (eV)
  ---------------------------------------------------
  alpha Z        PSCENC =      1482.39847719
  Ewald energy   TEWEN  =    246055.53486954
  -Hartree energ DENC   =   -295407.22322770
  -exchange      EXHF   =         0.00000000
  -V(xc)+E(xc)   XCENC  =       247.12390226
  PAW double counting   =     57547.70289797   -55930.03977067
  entropy T*S    EENTRO =        -0.33172968
  eigenvalues    EBANDS =     -1942.17652598
  atomic energy  EATOM  =     47527.87699037
  Solvation  Ediel_sol  =         0.00000000
  ---------------------------------------------------
  free energy    TOTEN  =      -419.13411669 eV

  energy without entropy =     -418.80238701  energy(sigma->0) =     -418.96825185


--------------------------------------------------------------------------------------------------------




--------------------------------------- Iteration      1(  10)  ---------------------------------------


    POTLOK:  cpu time    0.0313: real time    0.0405
    SETDIJ:  cpu time    0.0036: real time    0.0036
    EDDIAG:  cpu time    1.2430: real time    1.2481
  RMM-DIIS:  cpu time    3.5110: real time    3.5180
    ORTHCH:  cpu time    0.5641: real time    0.5645
       DOS:  cpu time    0.0008: real time    0.0008
    CHARGE:  cpu time    0.1440: real time    0.1443
    MIXING:  cpu time    0.0011: real time    0.0011
    --------------------------------------------
      LOOP:  cpu time    5.4990: real time    5.5209

 eigenvalue-minimisations  :  3934
 total energy-change (2. order) : 0.9709924E+01  (-0.6054577E+01)
 number of electron     652.0000447 magnetization 
 augmentation part      200.6110092 magnetization 

 DIPCOR: dipole corrections for dipol
 direction  3 min pos   179,
 dipolmoment           0.000000      0.000000     -1.041548 electrons x Angstroem
 Tr[quadrupol]    -12320.471827

 energy correction for charged system         0.000000 eV
 dipol+quadrupol energy correction           -0.036741 eV
 added-field ion interaction          7.313208 eV  (added to PSCEN)


 Broyden mixing:
  rms(total) = 0.45937E+01    rms(broyden)= 0.45936E+01
  rms(prec ) = 0.65649E+01
  weight for this iteration     100.00

 eigenvalues of (default mixing * dielectric matrix)
  average eigenvalue GAMMA=   0.7168
  2.1374  0.7354  0.1437  0.3132  0.2543

 Free energy of the ion-electron system (eV)
  ---------------------------------------------------
  alpha Z        PSCENC =      1503.30805765
  Ewald energy   TEWEN  =    246055.53486954
  -Hartree energ DENC   =   -295254.81821848
  -exchange      EXHF   =         0.00000000
  -V(xc)+E(xc)   XCENC  =       250.31815696
  PAW double counting   =     57625.37461630   -56001.91350734
  entropy T*S    EENTRO =        -0.41388457
  eigenvalues    EBANDS =     -2114.69127300
  atomic energy  EATOM  =     47527.87699037
  Solvation  Ediel_sol  =         0.00000000
  ---------------------------------------------------
  free energy    TOTEN  =      -409.42419257 eV

  energy without entropy =     -409.01030801  energy(sigma->0) =     -409.21725029


--------------------------------------------------------------------------------------------------------




--------------------------------------- Iteration      1(  11)  ---------------------------------------


    POTLOK:  cpu time    0.0305: real time    0.0317
    SETDIJ:  cpu time    0.0036: real time    0.0036
    EDDIAG:  cpu time    1.2349: real time    1.2361
  RMM-DIIS:  cpu time    3.4856: real time    3.4894
    ORTHCH:  cpu time    0.5631: real time    0.5635
       DOS:  cpu time    0.0009: real time    0.0009
    CHARGE:  cpu time    0.1437: real time    0.1439
    MIXING:  cpu time    0.0011: real time    0.0011
    --------------------------------------------
      LOOP:  cpu time    5.4634: real time    5.4703

 eigenvalue-minimisations  :  3933
 total energy-change (2. order) : 0.8547409E+01  (-0.2043714E+01)
 number of electron     652.0000456 magnetization 
 augmentation part      200.3505849 magnetization 

 DIPCOR: dipole corrections for dipol
 direction  3 min pos   184,
 dipolmoment           0.000000      0.000000      0.850013 electrons x Angstroem
 Tr[quadrupol]    -12321.820354

 energy correction for charged system         0.000000 eV
 dipol+quadrupol energy correction           -0.024470 eV
 added-field ion interaction         10.790318 eV  (added to PSCEN)


 Broyden mixing:
  rms(total) = 0.41422E+01    rms(broyden)= 0.41415E+01
  rms(prec ) = 0.60805E+01
  weight for this iteration     100.00

 eigenvalues of (default mixing * dielectric matrix)
  average eigenvalue GAMMA=   0.7006
  2.3236  0.8155  0.3753  0.3753  0.1570  0.1570

 Free energy of the ion-electron system (eV)
  ---------------------------------------------------
  alpha Z        PSCENC =      1506.79743821
  Ewald energy   TEWEN  =    246055.53486954
  -Hartree energ DENC   =   -295317.52175093
  -exchange      EXHF   =         0.00000000
  -V(xc)+E(xc)   XCENC  =       251.57717997
  PAW double counting   =     57870.62796397   -56246.60891888
  entropy T*S    EENTRO =        -0.35943823
  eigenvalues    EBANDS =     -2048.80111776
  atomic energy  EATOM  =     47527.87699037
  Solvation  Ediel_sol  =         0.00000000
  ---------------------------------------------------
  free energy    TOTEN  =      -400.87678374 eV

  energy without entropy =     -400.51734551  energy(sigma->0) =     -400.69706462


--------------------------------------------------------------------------------------------------------




--------------------------------------- Iteration      1(  12)  ---------------------------------------


    POTLOK:  cpu time    0.0287: real time    0.0289
    SETDIJ:  cpu time    0.0036: real time    0.0036
    EDDIAG:  cpu time    1.2386: real time    1.2399
  RMM-DIIS:  cpu time    3.5089: real time    3.5155
    ORTHCH:  cpu time    0.5618: real time    0.5621
       DOS:  cpu time    0.0009: real time    0.0009
    CHARGE:  cpu time    0.1436: real time    0.1438
    MIXING:  cpu time    0.0012: real time    0.0012
    --------------------------------------------
      LOOP:  cpu time    5.4872: real time    5.4958

 eigenvalue-minimisations  :  3933
 total energy-change (2. order) : 0.1565930E+02  (-0.6497443E+00)
 number of electron     652.0000437 magnetization 
 augmentation part      200.2271594 magnetization 

 DIPCOR: dipole corrections for dipol
 direction  3 min pos   188,
 dipolmoment           0.000000      0.000000      0.182313 electrons x Angstroem
 Tr[quadrupol]    -12323.697036

 energy correction for charged system         0.000000 eV
 dipol+quadrupol energy correction           -0.001126 eV
 added-field ion interaction          5.189891 eV  (added to PSCEN)


 Broyden mixing:
  rms(total) = 0.17401E+01    rms(broyden)= 0.17398E+01
  rms(prec ) = 0.20296E+01
  weight for this iteration     100.00

 eigenvalues of (default mixing * dielectric matrix)
  average eigenvalue GAMMA=   0.6385
  2.0818  0.9169  0.4305  0.3633  0.3633  0.1568  0.1568

 Free energy of the ion-electron system (eV)
  ---------------------------------------------------
  alpha Z        PSCENC =      1501.22035588
  Ewald energy   TEWEN  =    246055.53486954
  -Hartree energ DENC   =   -295378.43315143
  -exchange      EXHF   =         0.00000000
  -V(xc)+E(xc)   XCENC  =       251.03806289
  PAW double counting   =     58304.01558136   -56685.83259302
  entropy T*S    EENTRO =        -0.53775022
  eigenvalues    EBANDS =     -1960.09984939
  atomic energy  EATOM  =     47527.87699037
  Solvation  Ediel_sol  =         0.00000000
  ---------------------------------------------------
  free energy    TOTEN  =      -385.21748403 eV

  energy without entropy =     -384.67973380  energy(sigma->0) =     -384.94860892


--------------------------------------------------------------------------------------------------------




--------------------------------------- Iteration      1(  13)  ---------------------------------------


    POTLOK:  cpu time    0.0295: real time    0.0310
    SETDIJ:  cpu time    0.0036: real time    0.0036
    EDDIAG:  cpu time    1.2397: real time    1.2409
  RMM-DIIS:  cpu time    3.5200: real time    3.5239
    ORTHCH:  cpu time    0.5597: real time    0.5601
       DOS:  cpu time    0.0009: real time    0.0008
    CHARGE:  cpu time    0.1435: real time    0.1437
    MIXING:  cpu time    0.0012: real time    0.0012
    --------------------------------------------
      LOOP:  cpu time    5.4980: real time    5.5052

 eigenvalue-minimisations  :  3936
 total energy-change (2. order) : 0.1747350E+01  (-0.1953763E+00)
 number of electron     652.0000444 magnetization 
 augmentation part      199.7921923 magnetization 

 DIPCOR: dipole corrections for dipol
 direction  3 min pos   188,
 dipolmoment           0.000000      0.000000      0.199257 electrons x Angstroem
 Tr[quadrupol]    -12323.568684

 energy correction for charged system         0.000000 eV
 dipol+quadrupol energy correction           -0.001345 eV
 added-field ion interaction          5.672228 eV  (added to PSCEN)


 Broyden mixing:
  rms(total) = 0.12873E+01    rms(broyden)= 0.12858E+01
  rms(prec ) = 0.15168E+01
  weight for this iteration     100.00

 eigenvalues of (default mixing * dielectric matrix)
  average eigenvalue GAMMA=   0.5917
  2.0348  0.6921  0.6921  0.3743  0.3743  0.2495  0.1581  0.1581

 Free energy of the ion-electron system (eV)
  ---------------------------------------------------
  alpha Z        PSCENC =      1501.70247357
  Ewald energy   TEWEN  =    246055.53486954
  -Hartree energ DENC   =   -295381.81900307
  -exchange      EXHF   =         0.00000000
  -V(xc)+E(xc)   XCENC  =       251.34756348
  PAW double counting   =     57967.52204587   -56344.47654605
  entropy T*S    EENTRO =        -0.56101842
  eigenvalues    EBANDS =     -1960.59750950
  atomic energy  EATOM  =     47527.87699037
  Solvation  Ediel_sol  =         0.00000000
  ---------------------------------------------------
  free energy    TOTEN  =      -383.47013421 eV

  energy without entropy =     -382.90911579  energy(sigma->0) =     -383.18962500


--------------------------------------------------------------------------------------------------------




--------------------------------------- Iteration      1(  14)  ---------------------------------------


    POTLOK:  cpu time    0.0281: real time    0.0284
    SETDIJ:  cpu time    0.0039: real time    0.0039
    EDDIAG:  cpu time    1.2391: real time    1.2430
  RMM-DIIS:  cpu time    3.5392: real time    3.5451
    ORTHCH:  cpu time    0.5601: real time    0.5605
       DOS:  cpu time    0.0009: real time    0.0009
    CHARGE:  cpu time    0.1438: real time    0.1441
    MIXING:  cpu time    0.0013: real time    0.0013
    --------------------------------------------
      LOOP:  cpu time    5.5165: real time    5.5271

 eigenvalue-minimisations  :  3953
 total energy-change (2. order) : 0.7535792E+00  (-0.5177870E-01)
 number of electron     652.0000441 magnetization 
 augmentation part      199.8943201 magnetization 

 DIPCOR: dipole corrections for dipol
 direction  3 min pos   191,
 dipolmoment           0.000000      0.000000      0.073383 electrons x Angstroem
 Tr[quadrupol]    -12322.916540

 energy correction for charged system         0.000000 eV
 dipol+quadrupol energy correction           -0.000182 eV
 added-field ion interaction          2.957088 eV  (added to PSCEN)


 Broyden mixing:
  rms(total) = 0.76108E+00    rms(broyden)= 0.76107E+00
  rms(prec ) = 0.84787E+00
  weight for this iteration     100.00

 eigenvalues of (default mixing * dielectric matrix)
  average eigenvalue GAMMA=   0.5850
  2.0731  0.7518  0.7518  0.4574  0.3491  0.3491  0.2210  0.1560  0.1560

 Free energy of the ion-electron system (eV)
  ---------------------------------------------------
  alpha Z        PSCENC =      1498.98849540
  Ewald energy   TEWEN  =    246055.53486954
  -Hartree energ DENC   =   -295369.71089029
  -exchange      EXHF   =         0.00000000
  -V(xc)+E(xc)   XCENC  =       251.48916145
  PAW double counting   =     57843.71447622   -56219.57555320
  entropy T*S    EENTRO =        -0.61760480
  eigenvalues    EBANDS =     -1970.41649975
  atomic energy  EATOM  =     47527.87699037
  Solvation  Ediel_sol  =         0.00000000
  ---------------------------------------------------
  free energy    TOTEN  =      -382.71655505 eV

  energy without entropy =     -382.09895025  energy(sigma->0) =     -382.40775265


--------------------------------------------------------------------------------------------------------




--------------------------------------- Iteration      1(  15)  ---------------------------------------


    POTLOK:  cpu time    0.0309: real time    0.0392
    SETDIJ:  cpu time    0.0036: real time    0.0036
    EDDIAG:  cpu time    1.2396: real time    1.2408
  RMM-DIIS:  cpu time    3.5226: real time    3.5267
    ORTHCH:  cpu time    0.5622: real time    0.5652
       DOS:  cpu time    0.0009: real time    0.0009
    CHARGE:  cpu time    0.1437: real time    0.1439
    MIXING:  cpu time    0.0014: real time    0.0014
    --------------------------------------------
      LOOP:  cpu time    5.5050: real time    5.5217

 eigenvalue-minimisations  :  3931
 total energy-change (2. order) :-0.6852130E-01  (-0.3123288E-01)
 number of electron     652.0000440 magnetization 
 augmentation part      199.9715661 magnetization 

 DIPCOR: dipole corrections for dipol
 direction  3 min pos   193,
 dipolmoment           0.000000      0.000000      0.046581 electrons x Angstroem
 Tr[quadrupol]    -12322.922445

 energy correction for charged system         0.000000 eV
 dipol+quadrupol energy correction           -0.000073 eV
 added-field ion interaction          2.244408 eV  (added to PSCEN)


 Broyden mixing:
  rms(total) = 0.73573E+00    rms(broyden)= 0.73546E+00
  rms(prec ) = 0.94144E+00
  weight for this iteration     100.00

 eigenvalues of (default mixing * dielectric matrix)
  average eigenvalue GAMMA=   0.6213
  2.1129  0.9081  0.9081  0.7354  0.3941  0.3941  0.2645  0.1573  0.1573  0.1811

 Free energy of the ion-electron system (eV)
  ---------------------------------------------------
  alpha Z        PSCENC =      1498.27592464
  Ewald energy   TEWEN  =    246055.53486954
  -Hartree energ DENC   =   -295373.32263847
  -exchange      EXHF   =         0.00000000
  -V(xc)+E(xc)   XCENC  =       251.54249993
  PAW double counting   =     57850.19483932   -56226.31844564
  entropy T*S    EENTRO =        -0.60495624
  eigenvalues    EBANDS =     -1965.96415979
  atomic energy  EATOM  =     47527.87699037
  Solvation  Ediel_sol  =         0.00000000
  ---------------------------------------------------
  free energy    TOTEN  =      -382.78507635 eV

  energy without entropy =     -382.18012011  energy(sigma->0) =     -382.48259823


--------------------------------------------------------------------------------------------------------




--------------------------------------- Iteration      1(  16)  ---------------------------------------


    POTLOK:  cpu time    0.0300: real time    0.0385
    SETDIJ:  cpu time    0.0036: real time    0.0036
    EDDIAG:  cpu time    1.2368: real time    1.2387
  RMM-DIIS:  cpu time    3.5198: real time    3.5235
    ORTHCH:  cpu time    0.5603: real time    0.5606
       DOS:  cpu time    0.0008: real time    0.0008
    CHARGE:  cpu time    0.1443: real time    0.1445
    MIXING:  cpu time    0.0015: real time    0.0015
    --------------------------------------------
      LOOP:  cpu time    5.4971: real time    5.5118

 eigenvalue-minimisations  :  3935
 total energy-change (2. order) :-0.3058583E+00  (-0.3667237E-01)
 number of electron     652.0000446 magnetization 
 augmentation part      199.7615493 magnetization 

 DIPCOR: dipole corrections for dipol
 direction  3 min pos   194,
 dipolmoment           0.000000      0.000000     -0.006534 electrons x Angstroem
 Tr[quadrupol]    -12323.423894

 energy correction for charged system         0.000000 eV
 dipol+quadrupol energy correction           -0.000001 eV
 added-field ion interaction         -0.340606 eV  (added to PSCEN)


 Broyden mixing:
  rms(total) = 0.93884E+00    rms(broyden)= 0.93862E+00
  rms(prec ) = 0.12724E+01
  weight for this iteration     100.00

 eigenvalues of (default mixing * dielectric matrix)
  average eigenvalue GAMMA=   0.6111
  2.1064  0.9647  0.9647  0.8668  0.3843  0.3843  0.3295  0.2443  0.1567  0.1567
  0.1640

 Free energy of the ion-electron system (eV)
  ---------------------------------------------------
  alpha Z        PSCENC =      1495.69098240
  Ewald energy   TEWEN  =    246055.53486954
  -Hartree energ DENC   =   -295392.24541986
  -exchange      EXHF   =         0.00000000
  -V(xc)+E(xc)   XCENC  =       251.63079408
  PAW double counting   =     57875.27224979   -56251.16149172
  entropy T*S    EENTRO =        -0.61022121
  eigenvalues    EBANDS =     -1945.07968801
  atomic energy  EATOM  =     47527.87699037
  Solvation  Ediel_sol  =         0.00000000
  ---------------------------------------------------
  free energy    TOTEN  =      -383.09093463 eV

  energy without entropy =     -382.48071341  energy(sigma->0) =     -382.78582402


--------------------------------------------------------------------------------------------------------




--------------------------------------- Iteration      1(  17)  ---------------------------------------


    POTLOK:  cpu time    0.0301: real time    0.0357
    SETDIJ:  cpu time    0.0036: real time    0.0037
    EDDIAG:  cpu time    1.2372: real time    1.2383
  RMM-DIIS:  cpu time    3.5012: real time    3.5079
    ORTHCH:  cpu time    0.5624: real time    0.5626
       DOS:  cpu time    0.0009: real time    0.0009
    CHARGE:  cpu time    0.1439: real time    0.1441
    MIXING:  cpu time    0.0016: real time    0.0016
    --------------------------------------------
      LOOP:  cpu time    5.4809: real time    5.4947

 eigenvalue-minimisations  :  3929
 total energy-change (2. order) : 0.6097518E+00  (-0.1514886E-01)
 number of electron     652.0000440 magnetization 
 augmentation part      199.8386485 magnetization 

 DIPCOR: dipole corrections for dipol
 direction  3 min pos   194,
 dipolmoment           0.000000      0.000000      0.104655 electrons x Angstroem
 Tr[quadrupol]    -12323.649118

 energy correction for charged system         0.000000 eV
 dipol+quadrupol energy correction           -0.000371 eV
 added-field ion interaction          5.455240 eV  (added to PSCEN)


 Broyden mixing:
  rms(total) = 0.55469E+00    rms(broyden)= 0.55393E+00
  rms(prec ) = 0.64382E+00
  weight for this iteration     100.00

 eigenvalues of (default mixing * dielectric matrix)
  average eigenvalue GAMMA=   0.5990
  2.0929  1.0244  1.0244  0.9288  0.4015  0.4015  0.3193  0.3193  0.1983  0.1569
  0.1569  0.1641

 Free energy of the ion-electron system (eV)
  ---------------------------------------------------
  alpha Z        PSCENC =      1501.48645896
  Ewald energy   TEWEN  =    246055.53486954
  -Hartree energ DENC   =   -295395.33659172
  -exchange      EXHF   =         0.00000000
  -V(xc)+E(xc)   XCENC  =       251.84762714
  PAW double counting   =     57875.66307899   -56250.98245957
  entropy T*S    EENTRO =        -0.61227680
  eigenvalues    EBANDS =     -1947.95887973
  atomic energy  EATOM  =     47527.87699037
  Solvation  Ediel_sol  =         0.00000000
  ---------------------------------------------------
  free energy    TOTEN  =      -382.48118282 eV

  energy without entropy =     -381.86890603  energy(sigma->0) =     -382.17504443


--------------------------------------------------------------------------------------------------------




--------------------------------------- Iteration      1(  18)  ---------------------------------------


    POTLOK:  cpu time    0.0307: real time    0.0358
    SETDIJ:  cpu time    0.0036: real time    0.0036
    EDDIAG:  cpu time    1.2343: real time    1.2363
  RMM-DIIS:  cpu time    3.5150: real time    3.5192
    ORTHCH:  cpu time    0.5600: real time    0.5605
       DOS:  cpu time    0.0009: real time    0.0008
    CHARGE:  cpu time    0.1445: real time    0.1448
    MIXING:  cpu time    0.0017: real time    0.0017
    --------------------------------------------
      LOOP:  cpu time    5.4907: real time    5.5028

 eigenvalue-minimisations  :  3935
 total energy-change (2. order) : 0.1121863E+00  (-0.7009635E-02)
 number of electron     652.0000441 magnetization 
 augmentation part      199.7739060 magnetization 

 DIPCOR: dipole corrections for dipol
 direction  3 min pos   191,
 dipolmoment           0.000000      0.000000      0.120979 electrons x Angstroem
 Tr[quadrupol]    -12323.659080

 energy correction for charged system         0.000000 eV
 dipol+quadrupol energy correction           -0.000496 eV
 added-field ion interaction          4.875020 eV  (added to PSCEN)


 Broyden mixing:
  rms(total) = 0.45206E+00    rms(broyden)= 0.45202E+00
  rms(prec ) = 0.51734E+00
  weight for this iteration     100.00

 eigenvalues of (default mixing * dielectric matrix)
  average eigenvalue GAMMA=   0.6330
  2.1478  1.2924  1.2924  0.6256  0.6256  0.6110  0.3582  0.3582  0.2555  0.1565
  0.1565  0.1904  0.1582

 Free energy of the ion-electron system (eV)
  ---------------------------------------------------
  alpha Z        PSCENC =      1500.90611474
  Ewald energy   TEWEN  =    246055.53486954
  -Hartree energ DENC   =   -295397.05361088
  -exchange      EXHF   =         0.00000000
  -V(xc)+E(xc)   XCENC  =       251.88848477
  PAW double counting   =     57870.77235565   -56245.71417428
  entropy T*S    EENTRO =        -0.61390755
  eigenvalues    EBANDS =     -1945.96611892
  atomic energy  EATOM  =     47527.87699037
  Solvation  Ediel_sol  =         0.00000000
  ---------------------------------------------------
  free energy    TOTEN  =      -382.36899656 eV

  energy without entropy =     -381.75508901  energy(sigma->0) =     -382.06204278


--------------------------------------------------------------------------------------------------------




--------------------------------------- Iteration      1(  19)  ---------------------------------------


    POTLOK:  cpu time    0.0311: real time    0.0324
    SETDIJ:  cpu time    0.0037: real time    0.0037
    EDDIAG:  cpu time    1.2382: real time    1.2406
  RMM-DIIS:  cpu time    3.5036: real time    3.5101
    ORTHCH:  cpu time    0.5617: real time    0.5620
       DOS:  cpu time    0.0009: real time    0.0008
    CHARGE:  cpu time    0.1443: real time    0.1445
    MIXING:  cpu time    0.0017: real time    0.0017
    --------------------------------------------
      LOOP:  cpu time    5.4851: real time    5.4959

 eigenvalue-minimisations  :  3934
 total energy-change (2. order) : 0.3029862E-01  (-0.5466542E-02)
 number of electron     652.0000441 magnetization 
 augmentation part      199.7777301 magnetization 

 DIPCOR: dipole corrections for dipol
 direction  3 min pos   189,
 dipolmoment           0.000000      0.000000      0.154741 electrons x Angstroem
 Tr[quadrupol]    -12323.800998

 energy correction for charged system         0.000000 eV
 dipol+quadrupol energy correction           -0.000811 eV
 added-field ion interaction          5.015157 eV  (added to PSCEN)


 Broyden mixing:
  rms(total) = 0.41015E+00    rms(broyden)= 0.41015E+00
  rms(prec ) = 0.49030E+00
  weight for this iteration     100.00

[...]
    FORHAR:  cpu time    0.0139: real time    0.0139
    MIXING:  cpu time    0.0013: real time    0.0014
    OFIELD:  cpu time    0.0000: real time    0.0000

 ---------------------------------------------------------------------------------------------

         DFTD3 V3.0 Rev 1        
 Edisp (eV)  -35.67331

 E6    (eV) :   -13.4132
 E8    (eV) :   -22.2601
 % E8        : 62.40
    FORVDW:  cpu time    0.1784: real time    0.1868

  FORCE on cell =-STRESS in cart. coord.  units (eV):
  Direction    XX          YY          ZZ          XY          YZ          ZX
  --------------------------------------------------------------------------------------
  Alpha Z  1496.03159  1496.03159  1496.03159
  Ewald  285967.97299286750.37328************     0.00558    -0.01970    67.49548
  Hartree296674.55674296986.06532************     0.02822     0.02281    21.72476
  E(xc)   -2897.24983 -2895.32792 -2914.26949    -0.00030    -0.00044     0.20653
  Local  ************************603513.05657    -0.04150    -0.02339   -80.68841
  n-local   275.55318   316.26322   245.34241    -0.00581    -0.00301     1.59396
  augment  3359.22275  3329.22296  3445.95567     0.00451     0.00700    -2.70729
  Kinetic  9530.42407  9437.79141  9752.69669     0.00667     0.01892    -6.90383
  Fock        0.00000     0.00000     0.00000     0.00000     0.00000     0.00000
  vdW       -45.71855   -46.38572   -29.92414     0.00062    -0.00029    -0.59125
  -------------------------------------------------------------------------------------
  Total     -78.40382   -61.24753     0.29356    -0.00202     0.00190     0.12996
  in kB     -47.01941   -36.73064     0.17605    -0.00121     0.00114     0.07794
  external pressure =      -27.86 kB  Pullay stress =        0.00 kB


 VOLUME and BASIS-vectors are now :
 -----------------------------------------------------------------------------
  energy-cutoff  :      450.00
  volume of cell :     2671.60
      direct lattice vectors                 reciprocal lattice vectors
     9.717792020  0.000000000  0.000000000     0.102904034  0.000000000  0.000000000
     0.000000000 10.996716886  0.000000000     0.000000000  0.090936232  0.000000000
     0.000000000  0.000000000 25.000000000     0.000000000  0.000000000  0.040000000

  length of vectors
     9.717792020 10.996716886 25.000000000     0.102904034  0.090936232  0.040000000


 FORCES acting on ions
    electron-ion (+dipol)            ewald-force                    non-local-force                 convergence-correction
 -----------------------------------------------------------------------------------------------
   0.705E+00 0.726E+00 0.260E+04   -.667E+00 -.716E+00 -.260E+04   -.307E-01 -.184E-02 -.116E+01   0.167E-02 -.390E-02 0.440E-02
   -.421E+01 -.201E+01 0.909E+03   0.426E+01 0.205E+01 -.909E+03   0.455E-01 0.324E-01 -.445E+00   -.567E-02 0.430E-03 0.466E-02
   0.166E+01 0.751E+01 -.806E+03   -.150E+01 -.757E+01 0.805E+03   -.148E+00 0.598E-01 0.605E+00   -.715E-02 0.191E-03 0.346E-02
   -.179E+00 0.115E+01 0.260E+04   0.237E+00 -.120E+01 -.260E+04   -.701E-01 0.838E-02 -.117E+01   -.111E-02 -.268E-02 0.189E-02
   -.628E+00 0.523E+01 0.918E+03   0.631E+00 -.518E+01 -.917E+03   -.609E-02 -.389E-01 -.585E+00   -.233E-02 -.511E-02 0.879E-02
   0.615E+01 0.238E+02 -.823E+03   -.576E+01 -.232E+02 0.823E+03   -.395E+00 -.665E+00 -.338E+00   0.835E-04 0.399E-02 0.633E-02
   0.727E-01 0.152E+02 -.254E+04   -.743E-01 -.152E+02 0.254E+04   0.113E-01 0.598E-01 0.104E+01   -.237E-02 0.206E-02 -.127E-02
   0.314E+02 0.439E+02 -.251E+04   -.319E+02 -.440E+02 0.251E+04   0.469E+00 0.175E+00 0.122E+01   -.401E-02 0.219E-02 -.135E-04
   0.103E+01 0.852E+00 0.261E+04   -.936E+00 -.834E+00 -.261E+04   -.552E-01 -.377E-02 -.110E+01   -.506E-03 -.371E-02 0.209E-02
   -.435E+01 0.716E+01 0.918E+03   0.438E+01 -.725E+01 -.917E+03   0.674E-01 0.158E-01 -.355E+00   0.229E-02 0.476E-03 0.617E-02
   0.759E+01 0.116E+02 -.783E+03   -.746E+01 -.117E+02 0.783E+03   -.128E+00 0.781E-01 0.559E+00   -.451E-02 -.926E-03 0.780E-02
   -.174E+00 -.307E-02 0.261E+04   0.144E+00 0.300E-02 -.261E+04   -.409E-01 0.703E-04 -.114E+01   0.334E-02 -.170E-03 0.146E-02
   -.338E+00 -.170E-03 0.923E+03   0.268E+00 0.106E-03 -.922E+03   0.396E-01 -.242E-03 -.625E+00   -.784E-03 -.452E-04 0.109E-01
   0.800E+00 0.337E-02 -.775E+03   -.780E+00 -.306E-02 0.775E+03   -.260E-01 -.101E-02 0.482E+00   0.319E-02 0.280E-03 0.707E-02
   -.134E+01 0.175E+02 -.253E+04   0.126E+01 -.177E+02 0.253E+04   0.931E-01 0.151E+00 0.966E+00   -.123E-02 0.446E-03 -.285E-02
   0.697E+02 0.543E-02 -.243E+04   -.710E+02 -.417E-02 0.243E+04   0.129E+01 -.331E-02 0.161E+01   -.283E-02 0.276E-03 0.114E-02
   0.103E+01 -.856E+00 0.261E+04   -.937E+00 0.839E+00 -.261E+04   -.551E-01 0.373E-02 -.110E+01   -.489E-03 0.331E-02 0.207E-02
   -.437E+01 -.720E+01 0.918E+03   0.440E+01 0.729E+01 -.917E+03   0.678E-01 -.149E-01 -.355E+00   0.241E-02 -.319E-03 0.651E-02
   0.756E+01 -.116E+02 -.783E+03   -.743E+01 0.117E+02 0.783E+03   -.126E+00 -.755E-01 0.560E+00   -.460E-02 0.126E-02 0.797E-02
   -.181E+00 -.115E+01 0.260E+04   0.239E+00 0.120E+01 -.260E+04   -.702E-01 -.823E-02 -.117E+01   -.862E-03 0.270E-02 0.199E-02
   -.604E+00 -.523E+01 0.918E+03   0.607E+00 0.517E+01 -.917E+03   -.665E-02 0.388E-01 -.585E+00   -.212E-02 0.507E-02 0.938E-02
   0.614E+01 -.238E+02 -.823E+03   -.575E+01 0.232E+02 0.824E+03   -.393E+00 0.662E+00 -.342E+00   -.120E-03 -.413E-02 0.640E-02
   -.140E+01 -.176E+02 -.253E+04   0.131E+01 0.177E+02 0.253E+04   0.974E-01 -.144E+00 0.968E+00   -.143E-02 0.144E-04 -.315E-02
   0.313E+02 -.438E+02 -.251E+04   -.317E+02 0.440E+02 0.251E+04   0.471E+00 -.176E+00 0.122E+01   -.417E-02 -.231E-02 -.166E-03
   0.707E+00 -.722E+00 0.260E+04   -.669E+00 0.711E+00 -.260E+04   -.308E-01 0.187E-02 -.116E+01   0.170E-02 0.430E-02 0.436E-02
   -.423E+01 0.204E+01 0.909E+03   0.428E+01 -.208E+01 -.909E+03   0.451E-01 -.326E-01 -.445E+00   -.553E-02 -.587E-03 0.493E-02
   0.160E+01 -.753E+01 -.806E+03   -.145E+01 0.759E+01 0.805E+03   -.144E+00 -.579E-01 0.607E+00   -.716E-02 -.723E-03 0.373E-02
   -.143E+00 0.341E-02 0.260E+04   0.276E-01 -.352E-02 -.260E+04   0.515E-01 -.347E-04 -.112E+01   -.529E-02 0.145E-03 0.226E-02
   -.429E+00 0.109E-02 0.914E+03   0.487E+00 -.131E-02 -.913E+03   0.478E-02 0.273E-03 -.543E+00   -.301E-02 0.902E-04 0.586E-02
   0.234E+01 0.572E-01 -.800E+03   -.235E+01 -.576E-01 0.800E+03   0.175E-01 -.348E-03 0.677E+00   -.141E-02 -.148E-03 0.535E-02
   0.132E+00 -.151E+02 -.254E+04   -.131E+00 0.152E+02 0.254E+04   0.975E-02 -.658E-01 0.104E+01   -.220E-02 -.263E-02 -.158E-02
   0.107E+02 0.794E-02 -.254E+04   -.108E+02 -.901E-02 0.253E+04   0.688E-01 0.145E-02 0.108E+01   -.594E-02 -.675E-04 0.345E-03
   0.704E+00 0.414E+00 0.260E+04   -.715E+00 -.428E+00 -.260E+04   -.141E-01 0.344E-02 -.110E+01   -.111E-02 0.128E-02 0.443E-03
   0.167E+01 0.201E+01 0.914E+03   -.171E+01 -.200E+01 -.914E+03   -.655E-02 -.250E-01 -.492E+00   0.527E-02 -.643E-03 0.846E-02
   -.238E+01 0.873E+01 -.804E+03   0.233E+01 -.873E+01 0.804E+03   0.474E-01 -.156E-01 0.504E+00   0.573E-02 0.228E-02 0.567E-02
   0.142E+01 0.825E+00 0.260E+04   -.134E+01 -.805E+00 -.260E+04   -.466E-01 -.912E-02 -.113E+01   0.615E-03 -.376E-03 0.303E-02
   0.289E+01 0.277E+01 0.912E+03   -.294E+01 -.275E+01 -.912E+03   -.375E-01 0.450E-01 -.304E+00   0.235E-02 0.467E-02 0.695E-02
   -.104E+01 0.104E+02 -.801E+03   0.105E+01 -.104E+02 0.800E+03   -.149E-02 -.509E-02 0.582E+00   0.522E-03 0.204E-04 0.662E-02
   -.197E+01 0.368E+02 -.252E+04   0.191E+01 -.372E+02 0.252E+04   0.686E-01 0.410E+00 0.110E+01   0.244E-02 0.424E-02 0.201E-02
   -.317E+02 0.443E+02 -.250E+04   0.320E+02 -.445E+02 0.250E+04   -.376E+00 0.192E+00 0.122E+01   0.225E-02 0.138E-02 -.159E-02
   0.395E+00 0.907E+00 0.260E+04   -.382E+00 -.915E+00 -.260E+04   -.891E-02 -.428E-02 -.112E+01   0.111E-02 0.206E-02 0.368E-02
   0.508E+01 0.306E+01 0.917E+03   -.518E+01 -.307E+01 -.916E+03   -.394E-01 -.146E-01 -.476E+00   -.246E-02 -.913E-03 0.103E-01
   -.107E+02 0.114E+02 -.795E+03   0.103E+02 -.114E+02 0.795E+03   0.440E+00 -.186E-01 0.125E+00   0.224E-02 0.128E-02 0.533E-02
   0.144E+01 -.252E-02 0.261E+04   -.138E+01 0.243E-02 -.260E+04   -.354E-01 0.807E-04 -.108E+01   -.401E-02 -.211E-03 0.413E-02
   -.206E+01 0.129E-01 0.918E+03   0.203E+01 -.135E-01 -.917E+03   0.121E-01 -.243E-03 -.302E+00   0.123E-02 0.132E-03 0.641E-02
   -.349E+01 -.177E-02 -.781E+03   0.343E+01 0.895E-03 0.781E+03   0.716E-01 0.269E-03 0.779E+00   -.477E-03 0.560E-03 0.875E-02
   -.420E+00 0.132E+03 -.233E+04   0.383E+00 -.133E+03 0.233E+04   0.400E-01 0.902E+00 0.126E+00   0.413E-03 0.156E-02 0.753E-02
   -.716E+02 0.371E-01 -.244E+04   0.730E+02 -.354E-01 0.244E+04   -.146E+01 -.370E-02 0.169E+01   0.219E-02 0.207E-03 0.424E-04
   0.396E+00 -.913E+00 0.260E+04   -.383E+00 0.921E+00 -.260E+04   -.879E-02 0.419E-02 -.112E+01   0.108E-02 -.218E-02 0.382E-02
   0.504E+01 -.309E+01 0.917E+03   -.514E+01 0.311E+01 -.916E+03   -.382E-01 0.154E-01 -.476E+00   -.262E-02 0.832E-03 0.108E-01
   -.107E+02 -.114E+02 -.795E+03   0.103E+02 0.114E+02 0.795E+03   0.439E+00 0.197E-01 0.130E+00   0.221E-02 -.106E-02 0.521E-02
   0.142E+01 -.827E+00 0.260E+04   -.134E+01 0.807E+00 -.260E+04   -.466E-01 0.925E-02 -.113E+01   0.382E-03 0.394E-03 0.308E-02
   0.292E+01 -.280E+01 0.912E+03   -.297E+01 0.279E+01 -.912E+03   -.382E-01 -.446E-01 -.304E+00   0.215E-02 -.470E-02 0.733E-02
   -.986E+00 -.104E+02 -.801E+03   0.994E+00 0.104E+02 0.801E+03   -.371E-02 0.496E-02 0.578E+00   0.283E-03 -.150E-03 0.711E-02
   -.402E+00 -.132E+03 -.233E+04   0.365E+00 0.133E+03 0.233E+04   0.415E-01 -.894E+00 0.132E+00   0.510E-03 -.154E-02 0.749E-02
   -.316E+02 -.443E+02 -.250E+04   0.320E+02 0.445E+02 0.250E+04   -.379E+00 -.195E+00 0.122E+01   0.280E-02 -.136E-02 -.169E-02
   0.704E+00 -.408E+00 0.260E+04   -.715E+00 0.422E+00 -.260E+04   -.142E-01 -.335E-02 -.110E+01   -.114E-02 -.117E-02 0.569E-03
   0.168E+01 -.198E+01 0.914E+03   -.171E+01 0.197E+01 -.913E+03   -.674E-02 0.248E-01 -.491E+00   0.512E-02 0.715E-03 0.881E-02
   -.238E+01 -.871E+01 -.804E+03   0.234E+01 0.870E+01 0.804E+03   0.494E-01 0.181E-01 0.502E+00   0.574E-02 -.272E-02 0.569E-02
   0.118E+01 0.462E-02 0.260E+04   -.118E+01 -.470E-02 -.260E+04   -.231E-01 -.716E-04 -.114E+01   0.467E-02 0.192E-03 0.216E-02
   0.983E+00 0.273E-01 0.913E+03   -.989E+00 -.273E-01 -.913E+03   0.466E-01 -.253E-03 -.528E+00   0.380E-02 -.969E-04 0.662E-02
   -.996E+00 0.283E-01 -.811E+03   0.980E+00 -.284E-01 0.811E+03   0.142E-01 -.815E-04 0.519E+00   0.190E-02 -.172E-03 0.420E-02
   -.184E+01 -.367E+02 -.252E+04   0.178E+01 0.371E+02 0.252E+04   0.620E-01 -.416E+00 0.110E+01   0.232E-02 -.414E-02 0.190E-02
   -.113E+02 -.345E-01 -.253E+04   0.114E+02 0.332E-01 0.253E+04   -.924E-01 0.211E-02 0.112E+01   0.364E-02 -.146E-03 -.754E-03
   0.797E-01 0.219E+03 -.185E+04   0.834E-01 -.251E+03 0.187E+04   -.160E+00 0.325E+02 -.213E+02   0.658E-04 -.520E-03 -.534E-02
   0.504E-01 -.219E+03 -.185E+04   0.119E+00 0.251E+03 0.187E+04   -.166E+00 -.325E+02 -.213E+02   0.892E-04 0.810E-03 -.534E-02
 -----------------------------------------------------------------------------------------------
   0.617E+00 0.665E-02 0.444E+02   0.498E-12 -.853E-12 -.455E-11   -.541E+00 -.570E-02 -.447E+02   -.108E-01 0.315E-03 0.258E+00
 
 
 POSITION                                       TOTAL-FORCE (eV/Angst)
 -----------------------------------------------------------------------------------
      0.00000      0.00000      0.00000         0.012683      0.004175      0.001664
      3.23926      0.00000      2.29051         0.086314      0.070369      0.092367
      1.63822     10.99428      4.52625         0.000027     -0.000211      0.000316
      2.42945      1.37459      0.00000        -0.010216     -0.045158     -0.001836
      0.80982      1.37459      2.29051         0.000633      0.007953     -0.055121
      4.07126      1.39939      4.59426         0.002048     -0.008117     -0.001176
      0.01184     10.98932      6.82224         0.001941     -0.006326      0.008339
      2.41043      1.36709      6.82241        -0.002788      0.000137      0.002064
      0.00000      2.74918      0.00000         0.045868      0.010928     -0.065635
      3.23926      2.74918      2.29051         0.104415     -0.068906      0.038770
      1.62183      2.74032      4.51750        -0.001081      0.001608     -0.001590
      2.42945      4.12377      0.00000        -0.064541     -0.000186     -0.032700
      0.80982      4.12377      2.29051        -0.031862     -0.000337     -0.102772
      4.04321      4.12390      4.53978        -0.003977     -0.000412     -0.015309
      9.72038      2.73446      6.82571         0.002067     -0.001627      0.008733
      2.36173      4.12407      6.77101        -0.004555     -0.001757     -0.007078
      0.00000      5.49836      0.00000         0.045659     -0.010864     -0.065483
      3.23926      5.49836      2.29051         0.104655      0.069663      0.038570
      1.62176      5.50718      4.51739         0.001088      0.000529     -0.000939
      2.42945      6.87295      0.00000        -0.010089      0.045130     -0.001877
      0.80982      6.87295      2.29051        -0.000082     -0.008177     -0.055216
      4.07121      6.84839      4.59458         0.003700      0.005962     -0.003383
      9.72026      5.51298      6.82556         0.004179      0.005306      0.011314
      2.41020      6.88083      6.82232        -0.001665      0.000208      0.002325
      0.00000      8.24754      0.00000         0.012738     -0.004349      0.001678
      3.23926      8.24754      2.29051         0.086454     -0.070718      0.093254
      1.63799      8.24991      4.52619         0.002924      0.001920      0.001881
      2.42945      9.62213      0.00000        -0.066123     -0.000019     -0.216083
      0.80982      9.62213      2.29051         0.058735      0.000123     -0.066392
      4.06048      9.62216      4.52565        -0.002161     -0.000868     -0.001580
      0.01207      8.25555      6.82273         0.003179      0.003241      0.005316
      2.43468      9.62221      6.82805        -0.000822      0.000313      0.004991
      4.85890      0.00000      0.00000        -0.022834     -0.010260      0.004121
      8.09816      0.00000      2.29051        -0.038434     -0.007718     -0.028890
      6.48421     10.99518      4.53426         0.004834      0.000727      0.004872
      7.28834      1.37459      0.00000         0.035516      0.010662     -0.017391
      5.66871      1.37459      2.29051        -0.085024      0.064214      0.193390
      8.91529      1.37212      4.52487         0.007301      0.000018      0.003782
      4.86543     10.97495      6.83473         0.004648     -0.000920      0.004910
      7.31683      1.36113      6.81418         0.011605     -0.002328      0.003618
      4.85890      2.74918      0.00000         0.008953     -0.010136     -0.009266
      8.09816      2.74918      2.29051        -0.135884     -0.024160     -0.013397
      6.46590      2.74967      4.56128         0.002998     -0.002883     -0.004371
      7.28834      4.12377      0.00000         0.018375     -0.000235     -0.012709
      5.66871      4.12377      2.29051        -0.012016     -0.000621      0.181393
      8.91691      4.12377      4.51092        -0.000447     -0.000058     -0.000453
      4.86540      2.74083      6.91092        -0.002721      0.008865     -0.016274
      7.37070      4.12405      6.78357         0.001989     -0.001785     -0.012416
      4.85890      5.49836      0.00000         0.008815      0.010142     -0.009401
      8.09816      5.49836      2.29051        -0.134897      0.024917     -0.013347
      6.46598      5.49790      4.56087         0.003376      0.004240     -0.001643
      7.28834      6.87295      0.00000         0.035694     -0.010597     -0.017604
      5.66871      6.87295      2.29051        -0.085803     -0.063656      0.193495
      8.91543      6.87559      4.52521         0.005266      0.000382      0.000600
      4.86546      5.50648      6.91053        -0.001635     -0.004806     -0.012631
      7.31703      6.88661      6.81443         0.008775     -0.000359      0.002442
      4.85890      8.24754      0.00000        -0.022600      0.010125      0.004447
      8.09816      8.24754      2.29051        -0.038483      0.007045     -0.027231
      6.48413      8.24894      4.53444         0.006280      0.000708      0.002641
      7.28834      9.62213      0.00000        -0.012615      0.000026     -0.004227
      5.66871      9.62213      2.29051         0.039091     -0.000332     -0.007594
      8.92127      9.62218      4.52775         0.001628     -0.000356     -0.002460
      4.86593      8.26979      6.83526         0.002670     -0.002885      0.002272
      7.30719      9.62220      6.82185         0.003217      0.000613      0.005375
      4.87125      3.43799      8.80387         0.001566     -0.000126     -0.007589
      4.87136      4.80929      8.80365         0.001451      0.002005     -0.005878
 -----------------------------------------------------------------------------------
    total drift:                                0.064950      0.001270      0.041768


--------------------------------------------------------------------------------------------------------



  FREE ENERGIE OF THE ION-ELECTRON SYSTEM (eV)
  ---------------------------------------------------
  free  energy   TOTEN  =      -417.62484096 eV

  energy  without entropy=     -416.98682983  energy(sigma->0) =     -417.30583539
 
 d Force = 0.2374091E-03[ 0.189E-03, 0.286E-03]  d Energy = 0.2558422E-03-0.184E-04
 d Force = 0.8325948E+01[ 0.833E+01, 0.832E+01]  d Ewald  = 0.8325951E+01-0.236E-05


--------------------------------------------------------------------------------------------------------


    POTLOK:  cpu time    0.0516: real time    0.0517


--------------------------------------------------------------------------------------------------------


 stress matrix after NEB project (eV)
    -78.40382     -0.00202      0.12996
     -0.00202    -61.24753      0.00190
      0.12996      0.00190      0.29356
  FORCES: max atom, RMS     0.018730    0.005984
  FORCE total and by dimension    0.048613    0.016274
  Stress total and by dimension   99.491405   78.403822
 Quasi-Newton relaxation of ions (Broydens 2nd method)
  g(Force)  = 0.456E-04   g(Stress)= 0.000E+00

 retain information from N=  3 steps
 eigenvalues of (default step * inverse Hessian matrix)
  average eigenvalue of G=   6.0783
 eigenvalue spectrum of G is  7.0595  7.0595  4.1159


--------------------------------------------------------------------------------------------------------


  
 reached required accuracy - stopping structural energy minimisation
     LOOP+:  cpu time   64.5727: real time   64.9360
    4ORBIT:  cpu time    0.0000: real time    0.0000

 total amount of memory used by VASP MPI-rank0    74700. kBytes
=======================================================================

   base      :      30000. kBytes
   nonlr-proj:       5509. kBytes
   fftplans  :       3935. kBytes
   grid      :       6141. kBytes
   one-center:        139. kBytes
   wavefun   :      28976. kBytes
 
  
  
 General timing and accounting informations for this job:
 ========================================================
  
                  Total CPU time used (sec):     1354.860
                            User time (sec):     1169.221
                          System time (sec):      185.639
                         Elapsed time (sec):     1361.882
  
                   Maximum memory used (kb):     1013228.
                   Average memory used (kb):           0.
  
                          Minor page faults:       301617
                          Major page faults:            0
                 Voluntary context switches:     94749893
